13
Lattice="12.8 0.0 0.0 0.0 11.200000000000001 0.0 0.0 0.0 12.0" Properties=species:S:1:pos:R:3:forces:R:3:magmoms:R:1 Energy:=T -27355.3687368=T eV=T PBE+vdW=T (tier=T 2=T basis)=T energy=-76.84512624558221 dipole="-2.4081112776860736 0.1382426610117448 -1.832509088150865" magmom=0.0 free_energy=-76.84512624558221 pbc="F F F"
N        5.99059579       6.41185870       4.78361404       0.00370275      -0.01869327       0.03051713       0.00000000
C        6.09900141       6.21749570       6.26586166      -0.01189789      -0.00952828       0.00537466       0.00000000
C        7.60848906       6.20220197       6.63322459       0.00000544       0.00807052       0.01364202       0.00000000
O        8.42144687       6.46304987       5.69539237       0.00783964       0.01876252       0.03569222       0.00000000
H        5.98578779       5.51310486       4.28559887      -0.00716950      -0.00401212       0.00932638       0.00000000
H        6.84217680       6.91695937       4.48157556      -0.00386314      -0.02837153      -0.01063862       0.00000000
H        5.14621445       6.92773424       4.51018745       0.04298055       0.00121880       0.00492064       0.00000000
H        5.66792911       7.11712266       6.72796292       0.00050096       0.01298199      -0.02415447       0.00000000
C        5.31076605       4.98946457       6.69049911      -0.00680808      -0.02020518       0.01853914       0.00000000
H        4.26330920       5.08346488       6.37224549      -0.00433587      -0.01486942       0.00798697       0.00000000
H        5.33174445       4.88946083       7.78015621       0.01146934       0.01853784       0.03296535       0.00000000
H        5.73188498       4.07423680       6.25097228       0.02109499       0.00364606      -0.02548272       0.00000000
O        7.88281962       5.97070275       7.83987254      -0.01550542      -0.02955293       0.00945964       0.00000000
