26
Lattice="16.8 0.0 0.0 0.0 12.8 0.0 0.0 0.0 12.8" Properties=species:S:1:pos:R:3:forces:R:3:magmoms:R:1 Energy:=T -35053.6711002=T eV=T PBE+vdW=T (tier=T 2=T basis)=T energy=-155.79611169854064 dipole="-6.042517420194573 -1.0828727531537878 -1.2647222979376116" magmom=0.0 free_energy=-155.79611169854064 pbc="F F F"
N        9.59343788       7.60965496       5.79588888       0.01322300       0.00544241      -0.00354865       0.00000000
C       10.41090609       7.12063993       6.91491240       0.01111387       0.01362431       0.00474179       0.00000000
C       11.94127879       7.36076378       6.75717749       0.01197110      -0.01166918      -0.00948556       0.00000000
O       12.39681112       7.59037278       5.59678636       0.00643945       0.00946690      -0.00753261       0.00000000
H        9.66571497       8.62766526       5.73936508       0.00908900       0.02293023      -0.00692203       0.00000000
H        9.99477145       7.26076221       4.91988227       0.01650661       0.00115752       0.02220711       0.00000000
H       10.10192951       7.66868371       7.81987903      -0.02397603      -0.00815980      -0.00174543       0.00000000
C       10.16414019       5.62227129       7.15759786       0.02896579      -0.00339009      -0.00450534       0.00000000
C        8.78570109       5.23957240       7.72064408       0.00492800      -0.01853698       0.00898604       0.00000000
C        7.67507838       4.95664948       6.71022034      -0.00398019       0.00202381      -0.01077408       0.00000000
N        7.21703594       6.16056135       6.02296988       0.00614295       0.02285695       0.02357205       0.00000000
C        6.01494930       6.25860406       5.46674321       0.01213659      -0.01750313      -0.02896143       0.00000000
N        5.59247149       7.43937461       4.99114207       0.01115455      -0.00379511       0.00250917       0.00000000
N        5.19180923       5.19987919       5.40140080       0.01499022       0.00281524       0.01731478       0.00000000
H       10.93199548       5.28408533       7.86622416       0.01401902      -0.02128032       0.02531989       0.00000000
H       10.34370004       5.07406585       6.21669114       0.01894365      -0.00387584      -0.02267672       0.00000000
H        8.45015870       5.99960743       8.44570606      -0.01768476       0.01485329      -0.01664392       0.00000000
H        8.89975290       4.30594547       8.29008242       0.01904094      -0.03265192       0.02671361       0.00000000
H        6.82009448       4.51849933       7.24683952       0.01883150      -0.01961128       0.01123160       0.00000000
H        8.02874422       4.20605751       5.98001636       0.00433993      -0.00754059      -0.00033262       0.00000000
H        7.95715153       6.90016599       5.87076290       0.01860872       0.01654820       0.00474329       0.00000000
H        4.74036542       7.50113081       4.44664856       0.01575644       0.01250089       0.00169195       0.00000000
H        4.25455728       5.29925426       5.02931747       0.01599229       0.01522128      -0.00602124       0.00000000
H        5.54299306       4.26309617       5.55205737      -0.02112437      -0.00778031      -0.01078135       0.00000000
O       12.63144439       7.28405358       7.82178072      -0.00808473       0.04215177      -0.01319786       0.00000000
H        6.14687539       8.27747961       5.11933169       0.00787119      -0.02389300       0.00016418       0.00000000
