27
Lattice="15.200000000000001 0.0 0.0 0.0 16.8 0.0 0.0 0.0 13.600000000000001" Properties=species:S:1:pos:R:3:forces:R:3:magmoms:R:1 Energy:=T -35058.1569604=T eV=T PBE+vdW=T (tier=T 2=T basis)=T energy=-156.12195492139392 dipole="4.827673727199826 3.881257875528958 5.899500783538994" magmom=0.0 free_energy=-156.12195492139392 pbc="F F F"
N        9.59792411      10.40046111       4.80639536      -0.00301073      -0.02102200      -0.00070558       0.00000000
C        8.94193010      10.92275403       6.05286980      -0.00792859       0.02627484       0.00600181       0.00000000
C        9.87813078      12.02443806       6.64311053      -0.00792613      -0.01959769       0.01112259       0.00000000
O        9.58824929      12.45761682       7.78774608      -0.00984451      -0.00407095      -0.01122345       0.00000000
H       10.26786018      11.14025896       4.51412593      -0.00469087       0.00926025       0.02169881       0.00000000
H       10.14133522       9.54922296       4.99176639       0.01557999      -0.02553373      -0.00669464       0.00000000
H        8.03011965      11.44005489       5.72110886      -0.02933124       0.02166076      -0.00423778       0.00000000
C        8.58551181       9.80741056       7.02791417       0.00355880       0.02501716      -0.00901996       0.00000000
C        7.48529835       8.86420562       6.53302678       0.00208168       0.01450700      -0.00655461       0.00000000
C        7.07301271       7.89363967       7.63670523       0.00288904       0.00316343       0.01189407       0.00000000
N        6.00515311       6.99985941       7.18954540      -0.00690904      -0.00016027       0.01220109       0.00000000
C        5.72549750       5.81349691       7.73816550       0.00369861       0.00117847       0.01161878       0.00000000
N        4.79782356       5.01186832       7.19453831       0.01658721      -0.00926672       0.00293177       0.00000000
N        6.40495196       5.39260706       8.81243150      -0.01542623       0.01266853      -0.00711284       0.00000000
H        8.26178549      10.29685195       7.95680371       0.00421340      -0.00627489      -0.00261939       0.00000000
H        9.49923397       9.23630750       7.26571807      -0.01579476       0.01242886       0.02625661       0.00000000
H        7.83119278       8.29456526       5.65621123      -0.01419781      -0.01006541      -0.00188765       0.00000000
H        6.60967737       9.45547576       6.21860791      -0.01291479       0.00855959       0.00206630       0.00000000
H        6.74479773       8.45995908       8.52385076      -0.02007612       0.01073838       0.00363071       0.00000000
H        7.94369680       7.29001316       7.93324717      -0.00741694      -0.03294744      -0.00283629       0.00000000
H        5.40804940       7.31279814       6.42845146       0.00117391       0.01103547      -0.00308044       0.00000000
H        4.48446899       4.18160060       7.68471177       0.01753658       0.00800479       0.00803627       0.00000000
H        6.14303423       4.51705193       9.25204857       0.01016884      -0.02311784       0.01229641       0.00000000
H        6.93998417       6.04481043       9.37438009      -0.01445006       0.01854265      -0.00785167       0.00000000
H        4.29768993       5.28950751       6.35733421       0.01694049       0.01601992       0.00238378       0.00000000
O       10.82484281      12.40932969       5.89150376      -0.00900394      -0.00600953       0.00794901       0.00000000
H        8.93501895      10.19916952       4.05199375      -0.00925939       0.00232647      -0.01321347       0.00000000
