17
Lattice="15.200000000000001 0.0 0.0 0.0 11.200000000000001 0.0 0.0 0.0 12.0" Properties=species:S:1:pos:R:3:forces:R:3:magmoms:R:1 Energy:=T -31948.652284=T eV=T PBE+vdW=T (tier=T 2=T basis)=T energy=-105.94691245148243 dipole="-2.379363910691864 -0.4018067765545887 -1.011794765111281" magmom=0.0 free_energy=-105.94691245148243 pbc="F F F"
N        8.59862103       5.39626561       4.61561564      -0.00611014      -0.04849771      -0.00512916       0.00000000
C        8.51815855       5.92730934       6.01619868      -0.01038146       0.00457920      -0.01834677       0.00000000
C        9.90572995       5.84503606       6.71274166      -0.02244009       0.01565170       0.01158970       0.00000000
O        9.94182357       6.26187986       7.90307043      -0.02303444       0.01023012      -0.01083085       0.00000000
H        9.08121116       6.04322783       3.98496726       0.01554069       0.04461947      -0.00420303       0.00000000
H        9.11820782       4.50889815       4.60449625      -0.01819950       0.02669172      -0.03362261       0.00000000
H        8.24361462       6.98722800       5.92828447      -0.01343458       0.00923697       0.00253711       0.00000000
C        7.43733259       5.17096713       6.79547087       0.01040113       0.00667106       0.00488579       0.00000000
C        6.05515818       5.21125945       6.15786582      -0.01249784       0.00541210      -0.03927857       0.00000000
O        5.90316336       5.21535453       4.91358943       0.00091567       0.00796110       0.02847447       0.00000000
N        5.01352109       5.20248672       7.00158715      -0.01191411      -0.01860110      -0.01180738       0.00000000
H        7.39616707       5.58143194       7.81079209       0.01893007      -0.01293140       0.02173485       0.00000000
H        7.72247299       4.10906167       6.89007841      -0.01717460       0.00140568      -0.01818915       0.00000000
H        5.14360139       5.23368690       8.00720057       0.00574586      -0.00016290      -0.00123970       0.00000000
H        4.06646980       5.15041645       6.63908113      -0.01428735       0.01080671      -0.02103253       0.00000000
O       10.86202105       5.38012521       6.03071867      -0.00609261      -0.02031512      -0.02630865       0.00000000
H        7.61582327       5.24395014       4.29426022      -0.00278465       0.02107176      -0.03448128       0.00000000
