16
Lattice="12.0 0.0 0.0 0.0 13.600000000000001 0.0 0.0 0.0 12.0" Properties=species:S:1:pos:R:3:forces:R:3:magmoms:R:1 Energy:=T -32489.9272789=T eV=T PBE+vdW=T (tier=T 2=T basis)=T energy=-100.70438924112491 dipole="-2.9595797868925042 0.2965132757436489 -0.4335152167533786" magmom=0.0 free_energy=-100.70438924112491 pbc="F F F"
N        5.19516797       8.79894725       4.79891367       0.00110798       0.02942639       0.01248128       0.00000000
C        5.75783358       8.44522330       6.13816670       0.04473805      -0.00818231       0.01191721       0.00000000
C        7.30816603       8.32813620       6.00790574      -0.00485370      -0.04326444       0.00342106       0.00000000
O        7.81615433       8.81236188       4.95556169       0.01180610       0.01845492       0.01618140       0.00000000
H        5.05992558       7.93264844       4.25069995       0.00680044      -0.02130629       0.00109239       0.00000000
H        5.90213613       9.36867233       4.30703057       0.00420477       0.00648040      -0.00142472       0.00000000
H        5.57342914       9.30403980       6.79863935      -0.01691659      -0.00535324      -0.01410834       0.00000000
C        5.05771021       7.22977230       6.73445438      -0.00399884       0.01487033      -0.00222274       0.00000000
C        5.04629649       6.00218628       5.86068220      -0.00355497      -0.00602541       0.01331183       0.00000000
O        4.74376048       4.89715782       6.56166715       0.04391318      -0.00640669      -0.01275317       0.00000000
O        5.24392984       5.99235721       4.64865754       0.00032775      -0.03262581       0.03131050       0.00000000
H        4.00287209       7.46693466       6.95248993      -0.00866601      -0.00705098       0.00764575       0.00000000
H        5.52352085       6.98114710       7.69622639      -0.02062137       0.01931842      -0.00963150       0.00000000
O        7.90643201       7.80709447       6.98552362      -0.00465584      -0.00785101       0.01472492       0.00000000
H        4.30364274       9.30114455       4.86221788       0.00314429       0.03770317      -0.02426281       0.00000000
H        4.68733311       4.13742675       5.94083651       0.02094729      -0.01094239      -0.01274935       0.00000000
