15
Lattice="13.600000000000001 0.0 0.0 0.0 11.200000000000001 0.0 0.0 0.0 12.0" Properties=species:S:1:pos:R:3:forces:R:3:magmoms:R:1 Energy:=T -32482.5413704=T eV=T PBE+vdW=T (tier=T 2=T basis)=T energy=-100.87758048240599 dipole="-6.242077426946774 -5.143368540259016 -7.7427148642617984" magmom=0.0 free_energy=-100.87758048240599 pbc="F F F"
N        7.40175037       6.20195820       4.61519320       0.01263443      -0.00468116       0.01212560       0.00000000
C        7.33116876       6.21213798       6.11220844       0.00585884      -0.00184606      -0.00857323       0.00000000
C        8.66453195       5.75087374       6.75360166      -0.01430328       0.01352605      -0.00109319       0.00000000
O        9.48583022       5.13879252       6.01003677      -0.01374140       0.01375170      -0.01289121       0.00000000
H        7.87053960       5.34633129       4.29250795      -0.01125764      -0.00490268       0.00170521       0.00000000
H        7.92322195       7.00451003       4.25043852      -0.00172348       0.00525860       0.00418834       0.00000000
H        7.12716746       7.25027930       6.40735726       0.00305709      -0.01804633       0.00141342       0.00000000
C        6.17458643       5.30325264       6.55208507       0.01027262       0.01115039       0.00064220       0.00000000
C        4.80074642       5.61451220       5.92409966      -0.01573383       0.00044056      -0.00390563       0.00000000
O        3.77695090       5.26997716       6.57237673       0.01104452      -0.01381344       0.00109401       0.00000000
O        4.78262357       6.16678133       4.76694563       0.01126549      -0.03288431       0.02293840       0.00000000
H        6.08919178       5.34758176       7.64467133      -0.00468110      -0.00281519      -0.01252903       0.00000000
H        6.42024179       4.25759238       6.29503804      -0.01406637       0.01217287      -0.00200504       0.00000000
O        8.79329680       6.00326711       7.98599409       0.01443029      -0.01160433      -0.00614894       0.00000000
H        6.38072146       6.23880540       4.30844076       0.02064217      -0.00569811      -0.00931993       0.00000000
