20
Lattice="16.0 0.0 0.0 0.0 11.200000000000001 0.0 0.0 0.0 12.8" Properties=species:S:1:pos:R:3:forces:R:3:magmoms:R:1 Energy:=T -33018.5752585=T eV=T PBE+vdW=T (tier=T 2=T basis)=T energy=-122.50711361681084 dipole="-3.4183939497340643 0.6024185903544272 0.021803652837706064" magmom=0.0 free_energy=-122.50711361681084 pbc="F F F"
N        9.00143897       5.60427996       4.80575618      -0.00385128      -0.00030886      -0.00811460       0.00000000
C        9.55881330       5.91232734       6.16014732       0.00874367      -0.00701810      -0.00625235       0.00000000
C       11.03328375       5.42147919       6.21783562      -0.02603047      -0.02386685       0.02361798       0.00000000
O       11.42008147       4.65688076       5.28588896      -0.01029570      -0.01647285      -0.01694288       0.00000000
H        9.23849841       6.33419074       4.12519201      -0.01425572      -0.01392403       0.02510471       0.00000000
H        9.44769124       4.73336712       4.47759387      -0.00040711       0.01276516       0.01155687       0.00000000
H        9.54578032       7.00349609       6.28062806       0.00380516       0.00377720       0.00015607       0.00000000
C        8.72326026       5.26259997       7.27150277      -0.01801294      -0.01361610      -0.00660253       0.00000000
C        7.35451965       5.89718638       7.56943669      -0.02031574      -0.00223905      -0.01356236       0.00000000
C        6.21713651       5.52626264       6.63595999      -0.01305395      -0.00896035      -0.02263720       0.00000000
O        6.37345510       5.36386358       5.40022604       0.00578697       0.02004010      -0.00005329       0.00000000
N        5.00720214       5.40471702       7.20020784      -0.00618561      -0.00278956       0.02452886       0.00000000
H        9.32164954       5.34758700       8.18874326      -0.00462637      -0.01172202      -0.02070884       0.00000000
H        8.60935657       4.18554625       7.07072359       0.01285232      -0.01569820      -0.02029268       0.00000000
H        7.44156487       6.99737332       7.54171901       0.00523858      -0.00902335      -0.00822275       0.00000000
H        7.05611385       5.63929765       8.59550497       0.02962207       0.03710279       0.00392898       0.00000000
H        4.87651289       5.53426778       8.19770362      -0.02263751       0.00273000      -0.01100750       0.00000000
H        4.18701983       5.24759063       6.62048352       0.00723777      -0.01375218      -0.00036262       0.00000000
O       11.70403087       5.81620941       7.21032341       0.02980607       0.00453806       0.00656495       0.00000000
H        7.95000898       5.49914168       4.86930015      -0.02071421      -0.00224664      -0.02098641       0.00000000
