19
Lattice="12.8 0.0 0.0 0.0 14.4 0.0 0.0 0.0 12.8" Properties=species:S:1:pos:R:3:forces:R:3:magmoms:R:1 Energy:=T -33559.3422675=T eV=T PBE+vdW=T (tier=T 2=T basis)=T energy=-117.31575874188212 dipole="-3.0288657317928105 1.1929320947813569 -1.880598932015264" magmom=0.0 free_energy=-117.31575874188212 pbc="F F F"
N        5.19499269       9.19005955       5.20343152       0.02961227      -0.00404745      -0.00010720       0.00000000
C        6.07247757       8.35022486       6.08850376       0.02171911      -0.01660368       0.01557378       0.00000000
C        7.47197184       9.01189670       6.08748451       0.01840115      -0.01652030      -0.01237985       0.00000000
O        7.61585348      10.09809509       5.47830049      -0.00418450       0.00485041       0.00161549       0.00000000
H        4.32154644       9.46756682       5.66490136       0.03263153      -0.00391748      -0.02543060       0.00000000
H        4.95211339       8.71018750       4.32884143       0.00005980       0.02507300      -0.00366019       0.00000000
H        5.66875301       8.45135332       7.10477997       0.00172314       0.02186124       0.01659425       0.00000000
C        6.08259916       6.86287644       5.67484585      -0.00256051      -0.01309214      -0.01336062       0.00000000
C        5.82853142       5.84522636       6.79381597      -0.00935915       0.00598431      -0.01041841       0.00000000
C        6.93028419       5.45686542       7.76641541      -0.00619205       0.01036603       0.01151544       0.00000000
O        8.00779163       6.21273833       7.90527500       0.02209874      -0.00317899      -0.00257351       0.00000000
O        6.81084511       4.42950811       8.44179402       0.00663732      -0.00644168      -0.02068047       0.00000000
H        7.01480751       6.62322211       5.14290197       0.02311411       0.02162303       0.01294790       0.00000000
H        5.27632235       6.70824679       4.94407905      -0.02489372       0.02390118      -0.00108246       0.00000000
H        5.51225677       4.89763403       6.33584897      -0.01027876      -0.00179312      -0.00035554       0.00000000
H        4.97578401       6.16477292       7.41701773      -0.00562059       0.01241938      -0.01289962       0.00000000
O        8.37987009       8.39041097       6.73224925       0.00004393      -0.00504384       0.01546653       0.00000000
H        8.04847906       7.10836623       7.34343150      -0.00045066       0.00602218      -0.00105770       0.00000000
H        5.75569025      10.03665446       4.97066247      -0.02211813       0.00015802       0.00522059       0.00000000
