20
Lattice="12.8 0.0 0.0 0.0 13.600000000000001 0.0 0.0 0.0 13.600000000000001" Properties=species:S:1:pos:R:3:forces:R:3:magmoms:R:1 energy=-116.93077404384132 dipole="5.777651339003958 7.311121443053255 7.723551369974467" magmom=0.0 free_energy=-116.93077404384132 pbc="F F F"
N        6.00476744       8.43861523       7.19259984      -0.03470213      -0.02862949      -0.00129849       0.00000000
C        6.08553938       7.52135777       8.36658862      -0.02689661       0.00684462      -0.00166390       0.00000000
C        7.55628098       7.19958699       8.60926778      -0.00886368       0.02068145      -0.01783110       0.00000000
O        8.47403562       7.73149684       8.00420618       0.00217893      -0.01839219      -0.00667813       0.00000000
H        5.32915043       9.19476701       7.34859403      -0.01608772      -0.01905665       0.02129264       0.00000000
H        5.70630308       7.90441196       6.33937676       0.01816870       0.01258895       0.00935966       0.00000000
H        5.74508386       8.08842837       9.24480087       0.01498968       0.00992587       0.02638078       0.00000000
C        5.16900715       6.30278169       8.20602455      -0.01651347      -0.01228288      -0.00763437       0.00000000
C        5.61305546       5.21044378       7.22944703       0.01033514      -0.02519757      -0.00544392       0.00000000
C        5.45403436       5.50539873       5.76046303      -0.01289907      -0.01248646      -0.00087459       0.00000000
O        5.23514692       6.61063362       5.26293970      -0.00812514      -0.01057616       0.00424309       0.00000000
O        5.59197241       4.40368922       5.01010252       0.00706316      -0.00396034      -0.00953455       0.00000000
H        4.17047941       6.67305621       7.93267590      -0.03446661      -0.00409514       0.03412987       0.00000000
H        5.07472142       5.85075476       9.20105720      -0.01623656      -0.02427398      -0.01719421       0.00000000
H        5.05031966       4.28971745       7.43779592      -0.01746275      -0.01173211       0.01231009       0.00000000
H        6.66837540       4.93098084       7.38190835       0.02966591      -0.01429833       0.00086976       0.00000000
O        7.70743405       6.29651612       9.58069589      -0.03436472       0.00075570      -0.01041228       0.00000000
H        6.92642943       8.86501783       7.01400039       0.01203821      -0.00218305      -0.01573621       0.00000000
H        5.51598561       4.65662997       4.06387203      -0.01552014      -0.00775357      -0.00601208       0.00000000
H        8.66738010       6.14197123       9.71909348       0.02153121      -0.01751116       0.01237083       0.00000000
