17
Lattice="14.4 0.0 0.0 0.0 12.0 0.0 0.0 0.0 12.8" Properties=species:S:1:pos:R:3:forces:R:3:magmoms:R:1 Energy:=T -33551.9395705=T eV=T PBE+vdW=T (tier=T 2=T basis)=T energy=-116.65502737387895 dipole="-14.735725786027137 -11.40784934408137 -11.937145566821982" magmom=0.0 free_energy=-116.65502737387895 pbc="F F F"
N        7.38144568       6.61469173       4.78023128       0.00892620       0.00247038       0.00119547       0.00000000
C        8.02312713       6.65809458       6.09979719       0.01388655      -0.01075394       0.01110921       0.00000000
C        9.56247096       6.54241907       5.95916542      -0.00571339       0.00323530       0.00569525       0.00000000
O       10.02148548       5.99853680       4.90755586      -0.00879141       0.00687851       0.00751023       0.00000000
H        6.49982945       6.08665871       4.85574356       0.01343408      -0.01635773       0.01149114       0.00000000
H        8.00337869       6.06394115       4.17847806      -0.00592826       0.00889691      -0.00597414       0.00000000
H        7.82884314       7.63523493       6.57928689       0.00157017      -0.00479618      -0.02038567       0.00000000
C        7.52239358       5.57018818       7.07539912       0.00270319      -0.00742486      -0.01276303       0.00000000
C        6.05778763       5.71600872       7.54485312       0.01039358       0.00129278      -0.00210304       0.00000000
C        4.97096765       4.95360796       6.76042465      -0.01947298       0.03081281       0.00346969       0.00000000
O        5.03285953       4.93053753       5.48943027       0.01003564       0.00704384       0.00791393       0.00000000
O        4.04156462       4.41306115       7.44131116      -0.00791520       0.00390712      -0.00259190       0.00000000
H        8.16777615       5.61198566       7.96625167      -0.02814266      -0.02357075      -0.00386210       0.00000000
H        7.67571374       4.58197883       6.60920568       0.01275507      -0.00612686       0.02607201       0.00000000
H        5.77358234       6.78384225       7.52008390      -0.01584315      -0.01356464      -0.00620619       0.00000000
H        5.97878763       5.40972418       8.59703646      -0.00771095      -0.00925628      -0.00659440       0.00000000
O       10.25976808       6.98356222       6.92497883       0.02534184      -0.02915498       0.00444230       0.00000000
