18
Lattice="14.4 0.0 0.0 0.0 12.0 0.0 0.0 0.0 12.8" Properties=species:S:1:pos:R:3:forces:R:3:magmoms:R:1 Energy:=T -33551.9395705=T eV=T PBE+vdW=T (tier=T 2=T basis)=T energy=-117.38560658474184 dipole="-7.516954618702702 -4.71888894471543 -6.687406245500109" magmom=0.0 free_energy=-117.38560658474184 pbc="F F F"
N        7.20651350       6.60367305       4.80242123       0.00460989      -0.02075207      -0.00639292       0.00000000
C        7.92309988       6.77166547       6.10328106      -0.00136238      -0.01684547      -0.00148291       0.00000000
C        9.44967630       6.61519556       5.86410306       0.01083811      -0.00079263       0.00980429       0.00000000
O        9.80123513       6.01579848       4.80301816      -0.01146068      -0.01241023       0.00649740       0.00000000
H        6.27123838       6.08495391       4.95725888      -0.02064782      -0.04325138      -0.01307123       0.00000000
H        7.83199359       6.03964384       4.20214868       0.02974194       0.01737347      -0.02959458       0.00000000
H        7.71097022       7.78108395       6.47929474       0.00770289      -0.01650396      -0.00309557       0.00000000
C        7.45083468       5.72974178       7.12535823       0.00313551      -0.01736309       0.00247089       0.00000000
C        5.97891556       5.82706642       7.56860386      -0.01677871      -0.00292681      -0.00757083       0.00000000
C        4.95213378       5.08989123       6.69507095      -0.02501784       0.00388169      -0.00225455       0.00000000
O        5.05833435       5.19097487       5.41936641      -0.00358662       0.00892537       0.00474964       0.00000000
O        4.04001624       4.43605922       7.27182949      -0.03738811       0.00503228       0.00404393       0.00000000
H        8.08617423       5.86288914       8.01165938       0.00282308       0.00408554       0.00872509       0.00000000
H        7.66298792       4.72119978       6.73588362       0.00441198      -0.02364102      -0.00097091       0.00000000
H        5.67260816       6.88700020       7.60479695       0.00112097       0.00473576       0.00969990       0.00000000
H        5.88494320       5.44215940       8.59239125      -0.00366822       0.00771123      -0.00486613       0.00000000
O       10.20307766       7.06374209       6.77273193       0.02095441      -0.01866643       0.00229693       0.00000000
H        7.05362203       7.50078084       4.33313471      -0.01968496      -0.00751509       0.01020280       0.00000000
