10
Lattice="11.200000000000001 0.0 0.0 0.0 11.200000000000001 0.0 0.0 0.0 12.8" Properties=species:S:1:pos:R:3:forces:R:3:magmoms:R:1 Energy:=T -26285.6295149=T eV=T PBE+vdW=T (tier=T 2=T basis)=T energy=-60.32676544344274 dipole="-1.7985698521387385 0.00016596434617733457 -2.3932361278572434" magmom=0.0 free_energy=-60.32676544344274 pbc="F F F"
N        5.03232962       5.00063117       5.20389437      -0.02132215       0.00354063      -0.01311161       0.00000000
C        5.09610080       5.82769415       6.44794156      -0.01781718       0.00611463      -0.02850052       0.00000000
C        6.27365738       5.33549315       7.32071088      -0.01615658       0.02380738      -0.00652008       0.00000000
O        6.96988239       4.38779151       6.84381362      -0.03726893       0.02773029      -0.01200243       0.00000000
H        5.82624799       4.32836112       5.30755178      -0.01766934      -0.00481745      -0.03162032       0.00000000
H        4.15354693       4.48131502       5.11116025       0.01625481       0.00937568      -0.00664563       0.00000000
H        5.24271823       6.87791831       6.17403007       0.02496207      -0.00241948       0.00798978       0.00000000
H        4.15023456       5.73387360       6.99225402       0.02255601       0.00084432       0.02092482       0.00000000
O        6.42791006       5.92606147       8.42180567       0.00728772       0.01827416      -0.01023114       0.00000000
H        5.17453810       5.55069835       4.35064599      -0.02387250      -0.01609896       0.00898618       0.00000000
