21
Lattice="12.8 0.0 0.0 0.0 14.4 0.0 0.0 0.0 13.600000000000001" Properties=species:S:1:pos:R:3:forces:R:3:magmoms:R:1 Energy:=T -33484.1432161=T eV=T PBE+vdW=T (tier=T 2=T basis)=T energy=-128.10577368132132 dipole="3.606509719007533 5.952261781336933 6.400317034133378" magmom=0.0 free_energy=-128.10577368132132 pbc="F F F"
N        6.20436511       8.59783063       4.79750961       0.00992524       0.01136223       0.00987146       0.00000000
C        6.45042434       9.14227647       6.17038118      -0.00266942      -0.02157414      -0.00151781       0.00000000
C        7.93861795       8.88079755       6.54866744      -0.00225846      -0.01604417       0.00375414       0.00000000
O        8.23012256       9.00293950       7.77171469       0.00102477       0.00079997       0.00723331       0.00000000
H        5.47279439       9.11501851       4.29764940      -0.01616183      -0.01035834      -0.01663513       0.00000000
H        5.93806784       7.60491769       4.82034374      -0.01590735      -0.00973080      -0.01831764       0.00000000
H        7.09682040       8.65883973       4.27819219       0.02032434      -0.00783889       0.01431941       0.00000000
H        6.33576185      10.23190665       6.08822075      -0.00966176       0.01853488       0.01317801       0.00000000
C        5.40599518       8.62060030       7.16543832      -0.01102937      -0.00057644       0.00380460       0.00000000
C        5.56619768       7.19331657       7.56759193      -0.00381252       0.00986414      -0.00422640       0.00000000
N        6.58755470       6.78064305       8.40647467       0.00667119       0.02285721       0.02532353       0.00000000
C        4.81968443       6.07085022       7.30661005      -0.01785183       0.00878718       0.02032659       0.00000000
C        6.47530919       5.47574242       8.66175764       0.02083519      -0.00363742      -0.00719567       0.00000000
N        5.40265426       5.03054195       7.99894012       0.02134145       0.01719261       0.00866664       0.00000000
H        4.40251831       8.75937041       6.74169465      -0.01667278      -0.02182702      -0.00689603       0.00000000
H        5.46072508       9.24982306       8.06385163       0.02113449       0.02776318       0.00718286       0.00000000
H        7.34104178       7.40646795       8.71055118       0.01736814       0.00649149       0.01335671       0.00000000
H        3.93278060       5.93258084       6.70070194      -0.01403127       0.02065627       0.01785899       0.00000000
H        7.12777321       4.88732540       9.29605457       0.01192125      -0.01005435      -0.02700572       0.00000000
H        5.07309989       4.06739235       8.01210779       0.00465203       0.01190402       0.00592311       0.00000000
O        8.71704415       8.60447989       5.59541229       0.00544681       0.02402216      -0.01128644       0.00000000
