20
Lattice="16.0 0.0 0.0 0.0 12.0 0.0 0.0 0.0 12.8" Properties=species:S:1:pos:R:3:forces:R:3:magmoms:R:1 Energy:=T -33479.3861415=T eV=T PBE+vdW=T (tier=T 2=T basis)=T energy=-128.02733892204333 dipole="-1.7274956333561713 1.500665479831811 -0.16049979693860295" magmom=0.0 free_energy=-128.02733892204333 pbc="F F F"
N        9.40824282       6.80672692       5.39131824      -0.00289995       0.00949554       0.00503872       0.00000000
C        9.53768045       6.13233226       6.71788840      -0.03242151       0.00470085       0.00356623       0.00000000
C       10.95760747       5.50170431       6.78897292       0.02081039       0.01108723       0.02330418       0.00000000
O       11.56062453       5.35845662       5.68431781       0.01032571      -0.00341396      -0.02752754       0.00000000
H        9.68070528       7.79470549       5.43446802       0.01297162      -0.00317943       0.02463611       0.00000000
H        8.44733570       6.75929688       5.01921612      -0.01645515      -0.01162464      -0.01313543       0.00000000
H        9.43264148       6.89719449       7.49453168      -0.02498564       0.01139131       0.02380147       0.00000000
C        8.44091909       5.04878710       6.87107258      -0.03059525      -0.02605486      -0.00945301       0.00000000
C        7.07289438       5.53230209       6.51983902      -0.00397586       0.01000294       0.01376540       0.00000000
N        6.22715853       6.20128732       7.38341383      -0.02603142      -0.00924865       0.00818300       0.00000000
C        6.40368937       5.53685719       5.30766141       0.03809783      -0.00585280      -0.01390763       0.00000000
C        5.11994381       6.57049255       6.68712461       0.00299958       0.04460025      -0.01994042       0.00000000
N        5.19290567       6.19188909       5.41556164       0.02596686      -0.00312128       0.00405769       0.00000000
H        8.48008560       4.67996974       7.90436333       0.00690806       0.00818189      -0.00046330       0.00000000
H        8.68657927       4.20321172       6.21229024       0.01093660      -0.01886809      -0.03000846       0.00000000
H        6.73030279       5.09079146       4.37151944       0.01780359      -0.00821106      -0.02950071       0.00000000
H        4.29888538       7.11316441       7.14567481      -0.02472247       0.00372899       0.03025948       0.00000000
H        6.40525080       6.39254183       8.36659068      -0.00665359      -0.00416631      -0.01491905       0.00000000
O       11.36364406       5.17614137       7.93517241      -0.01620087      -0.01643236       0.03673862       0.00000000
H       10.06966406       6.32497538       4.75175296       0.01805791      -0.00978480       0.01064595       0.00000000
