20
Lattice="12.8 0.0 0.0 0.0 15.200000000000001 0.0 0.0 0.0 12.8" Properties=species:S:1:pos:R:3:forces:R:3:magmoms:R:1 Energy:=T -33480.8539023=T eV=T PBE+vdW=T (tier=T 2=T basis)=T energy=-128.00359060471348 dipole="-2.1115093244597087 0.07337804284149639 -3.2540902539642427" magmom=0.0 free_energy=-128.00359060471348 pbc="F F F"
N        6.79930212       9.77820100       5.05419055       0.01839863      -0.00073771      -0.03450718       0.00000000
C        6.39701675       9.56098320       6.48853951      -0.00479313      -0.00467643      -0.00195517       0.00000000
C        7.68158722       9.21692938       7.30038305       0.00024780      -0.00432208      -0.00483572       0.00000000
O        7.54424570       9.15400410       8.54993162       0.02367881       0.01794405      -0.00680367       0.00000000
H        7.74833193       9.36189977       4.96585043       0.01897363       0.00432596       0.01185762       0.00000000
H        6.87648486      10.77369583       4.82663656      -0.03524457       0.02062320      -0.02118744       0.00000000
H        6.01055628      10.51407315       6.86801135       0.00533201       0.01840318      -0.00922702       0.00000000
C        5.27946410       8.51061930       6.61299297       0.00295706       0.01090168      -0.00701224       0.00000000
C        5.59659654       7.14799252       6.07677904       0.02479433       0.00154622      -0.02404418       0.00000000
N        6.60163814       6.36253661       6.61345575       0.02008357       0.00269000       0.00307662       0.00000000
C        4.97056420       6.45633596       5.05760825      -0.02089320      -0.00664499      -0.00228161       0.00000000
C        6.57215519       5.21978549       5.93956886       0.02257907       0.01147998      -0.00626758       0.00000000
N        5.59899261       5.23249228       4.99453724      -0.00772432       0.00750104      -0.01520938       0.00000000
H        4.37799315       8.89540297       6.11507848      -0.01333846       0.00604167      -0.02509013       0.00000000
H        5.04602695       8.44923414       7.68647302       0.00228578      -0.00878189       0.00516056       0.00000000
H        4.15229135       6.71670577       4.39378292      -0.01200621       0.00159405       0.02150962       0.00000000
H        7.22738377       4.36578410       6.09195686       0.00130994      -0.00005846       0.01353870       0.00000000
H        5.39384665       4.48616986       4.33475955      -0.02025087       0.01010550       0.02543956       0.00000000
O        8.74692512       9.04858719       6.63485667      -0.00366496       0.01099638      -0.03038526       0.00000000
H        6.15951850       9.33732941       4.38357366      -0.01201003       0.01681433      -0.02835602       0.00000000
