22
Lattice="13.600000000000001 0.0 0.0 0.0 13.600000000000001 0.0 0.0 0.0 13.600000000000001" Properties=species:S:1:pos:R:3:forces:R:3:magmoms:R:1 Energy:=T -30563.923205=T eV=T PBE+vdW=T (tier=T 2=T basis)=T energy=-126.22298172999866 dipole="-1.2209732339130674 -1.4041868936487518 -2.3224694743485585" magmom=0.0 free_energy=-126.22298172999866 pbc="F F F"
N        7.58550593       8.01285915       5.07591256      -0.00070609      -0.00580812      -0.01687313       0.00000000
C        6.99332301       8.39428303       6.40772585      -0.02602749      -0.00771676      -0.00100434       0.00000000
C        8.12269269       9.05805401       7.25020634       0.01691632      -0.02505155       0.02342438       0.00000000
O        9.23066483       9.24041257       6.66075020       0.02226402       0.01722409      -0.02389974       0.00000000
H        6.94165576       8.15923696       4.29301500      -0.02015232      -0.00042654      -0.02248335       0.00000000
H        8.43292987       8.60325539       4.96547351       0.01581991      -0.03659752       0.01277012       0.00000000
H        6.26362558       9.18780128       6.19487882      -0.01332989       0.02864365      -0.02825956       0.00000000
C        6.26180646       7.23029660       7.09887546      -0.01325096      -0.02107097       0.00515148       0.00000000
C        7.19707270       6.04754765       7.41034239       0.00334865      -0.00884294       0.01548121       0.00000000
C        5.00717953       6.80990836       6.32104177       0.01097640       0.01805136       0.00151402       0.00000000
C        6.57935726       4.98402462       8.32257710      -0.00438691       0.00408945       0.00008611       0.00000000
H        5.93637359       7.65786055       8.06143144      -0.00334484      -0.00405960      -0.00353418       0.00000000
H        8.10895370       6.43915725       7.88925498       0.02340950      -0.00637757      -0.01144430       0.00000000
H        7.51481078       5.55650200       6.47297590       0.00178159       0.02328566       0.00425983       0.00000000
H        4.36157475       7.67735416       6.11788911       0.00410012       0.00162559      -0.00674262       0.00000000
H        4.41508597       6.08470244       6.89707764       0.03242544       0.01215746      -0.03277520       0.00000000
H        5.26312952       6.34213138       5.35600930       0.01415650       0.00299988       0.02657841       0.00000000
H        7.31263493       4.19543373       8.54727510      -0.01200989       0.00932879      -0.01318510       0.00000000
H        5.70758892       4.50228629       7.85749713       0.00243264       0.00322927       0.00320947       0.00000000
H        6.25515861       5.42081002       9.27981194       0.00072198       0.02474618      -0.01560137       0.00000000
O        7.82544681       9.39044715       8.42749543      -0.02235014       0.00967225       0.00768176       0.00000000
H        7.89700603       7.03469249       5.05547813      -0.00102067       0.00683246      -0.00713707       0.00000000
