22
Lattice="13.600000000000001 0.0 0.0 0.0 13.600000000000001 0.0 0.0 0.0 13.600000000000001" Properties=species:S:1:pos:R:3:forces:R:3:magmoms:R:1 Energy:=T -30563.9394655=T eV=T PBE+vdW=T (tier=T 2=T basis)=T energy=-126.28259387151222 dipole="-2.7522613052769325 0.9681805256914237 0.8157825689661584" magmom=0.0 free_energy=-126.28259387151222 pbc="F F F"
N        6.36837350       8.41438440       5.58964563       0.01793343      -0.02037124       0.00430476       0.00000000
C        7.33437207       7.51023112       6.29657141       0.00315893      -0.00745708       0.02247227       0.00000000
C        8.57185435       7.35782161       5.36683945      -0.01196582      -0.02790157       0.01783766       0.00000000
O        9.63827032       6.97106369       5.91503853      -0.02813884      -0.02099115       0.02577640       0.00000000
H        6.54699064       9.40331033       5.79875735       0.01824344      -0.01439801       0.02855326       0.00000000
H        6.53781496       8.28359298       4.57299247       0.00198043      -0.03261879       0.02521906       0.00000000
H        7.64468171       8.01541374       7.21807890      -0.02457526      -0.00669362       0.04258865       0.00000000
C        6.70013339       6.14409860       6.59273110       0.00172850       0.00426931      -0.00397470       0.00000000
C        5.45241320       6.13325689       7.49754450       0.01830743       0.01025956      -0.00463814       0.00000000
C        4.94453444       4.69430319       7.65139866       0.00265798       0.01511500      -0.01696627       0.00000000
C        5.69877912       6.76343795       8.87027046       0.01625800       0.00859187       0.00398537       0.00000000
H        7.48353863       5.52726103       7.06154903       0.00883379       0.02638902      -0.00444395       0.00000000
H        6.44825572       5.66019406       5.63449482       0.01452934       0.00668087      -0.01254700       0.00000000
H        4.64751847       6.70578127       7.00031092       0.01260803      -0.00209745      -0.00583341       0.00000000
H        4.03205839       4.67124443       8.26499926       0.01956174      -0.00861308       0.00396418       0.00000000
H        5.70419728       4.06504000       8.14337735      -0.02302408       0.00719409      -0.00104041       0.00000000
H        4.71062659       4.24420146       6.67553343       0.00500248      -0.00236640      -0.00880787       0.00000000
H        6.52695048       6.25396253       9.38762039      -0.00003156       0.00410256       0.01866281       0.00000000
H        4.79791958       6.66940388       9.49507868       0.02880139       0.02648756       0.01085455       0.00000000
H        5.94775507       7.83256092       8.80122070       0.00444120       0.00812702       0.00208747       0.00000000
O        8.38625006       7.61255653       4.13929137       0.01086857      -0.00174460       0.00883948       0.00000000
H        5.38330638       8.22721510       5.81356517       0.02890943      -0.02710745      -0.01845092       0.00000000
