24
Lattice="13.600000000000001 0.0 0.0 0.0 13.600000000000001 0.0 0.0 0.0 14.4" Properties=species:S:1:pos:R:3:forces:R:3:magmoms:R:1 Energy:=T -32071.7445151=T eV=T PBE+vdW=T (tier=T 2=T basis)=T energy=-138.39523485535312 dipole="-2.307230070230031 2.310792128775629 4.000750153666644" magmom=0.0 free_energy=-138.39523485535312 pbc="F F F"
N        7.57801953       5.39189307       7.77444857      -0.01447225      -0.01509289       0.04222895       0.00000000
C        7.13062017       5.28131868       6.36828002       0.02135001       0.00209963       0.00348785       0.00000000
C        8.23894965       4.78996318       5.39394433      -0.00442241       0.02181334      -0.00114322       0.00000000
O        7.84705539       4.38216133       4.25606951      -0.00532055       0.00166596       0.01219574       0.00000000
H        7.64060870       4.45702703       8.18250691       0.04420795      -0.01470653       0.01729328       0.00000000
H        8.54047419       5.74607875       7.76189278      -0.02269850      -0.00446710       0.00721775       0.00000000
H        6.32017689       4.53602328       6.33047342       0.01673669       0.01516025       0.02121400       0.00000000
C        6.55706904       6.62455723       5.87786603       0.00713106       0.00502825      -0.00870703       0.00000000
C        5.21325144       6.99901838       6.54329803      -0.01355028       0.00161878       0.00369539       0.00000000
C        5.19421958       8.30523682       7.35026602       0.00326630       0.00057022       0.01088353       0.00000000
C        6.21595823       8.40800572       8.47900886       0.01133417       0.00384891       0.00231231       0.00000000
N        6.20257236       7.20224928       9.36735060       0.00840102       0.01302138      -0.01528570       0.00000000
H        6.42871573       6.55447827       4.78984857      -0.01182307       0.00357419      -0.01609061       0.00000000
H        7.31044593       7.41202490       6.04754099       0.02149604      -0.00409080       0.02023514       0.00000000
H        4.88873042       6.16696101       7.18919128      -0.00400329      -0.00254158       0.01792535       0.00000000
H        4.43964977       7.08592667       5.76669861      -0.02079587      -0.00384524      -0.00771233       0.00000000
H        4.18367303       8.45320538       7.76520130       0.00469239      -0.02293675      -0.00488666       0.00000000
H        5.37631948       9.15879628       6.67805975       0.00949207      -0.00202601       0.02305766       0.00000000
H        6.02554392       9.29472909       9.09547529       0.00579706      -0.00401651      -0.00102434       0.00000000
H        7.24002388       8.47954011       8.08893578       0.01095718       0.00413003       0.01337082       0.00000000
H        6.75414133       7.37131964      10.21457495      -0.00776111      -0.02435922       0.01367889       0.00000000
H        5.25384123       6.94684490       9.66419052       0.03901195      -0.00101482      -0.02005476       0.00000000
O        9.44391102       4.85001145       5.78348422       0.00425437      -0.02127811       0.01250996       0.00000000
H        6.67144426       6.38189059       8.81424634      -0.00972043      -0.00776085       0.02015102       0.00000000
