25
Lattice="16.8 0.0 0.0 0.0 14.4 0.0 0.0 0.0 12.8" Properties=species:S:1:pos:R:3:forces:R:3:magmoms:R:1 Energy:=T -32076.1788907=T eV=T PBE+vdW=T (tier=T 2=T basis)=T energy=-138.73686245717695 dipole="4.197978429848601 4.68659403190078 3.1447180908910615" magmom=0.0 free_energy=-138.73686245717695 pbc="F F F"
N       10.80008205       9.19509528       4.99157089       0.00013163      -0.00442037       0.02736735       0.00000000
C       10.14828831       9.24345085       6.34264418       0.00410520       0.00313460       0.03512608       0.00000000
C       11.27348596       9.60670130       7.36395301      -0.02249266       0.01509367      -0.00492743       0.00000000
O       12.38108359       9.97698020       6.86388432      -0.03907173      -0.00757493      -0.00368523       0.00000000
H       11.07842346       8.23864385       4.74123966      -0.00582652       0.00777511      -0.03717734       0.00000000
H       10.22054248       9.57014055       4.23403932      -0.01359293       0.00986967       0.03496122       0.00000000
H        9.45068850      10.09479732       6.31768570       0.03261366       0.01318556       0.02178423       0.00000000
C        9.38099266       7.96089444       6.65437239       0.00411121       0.01005972      -0.00206437       0.00000000
C        8.14160228       7.74808596       5.77780774       0.00444521      -0.00427978       0.00632403       0.00000000
C        7.30475835       6.54755679       6.23183740      -0.01536128      -0.00574396      -0.01433006       0.00000000
C        6.07552007       6.37278320       5.35214093      -0.01601294      -0.01130198      -0.01435833       0.00000000
N        5.22423145       5.21974329       5.80194357      -0.00746142      -0.02115829       0.00669939       0.00000000
H        9.08087583       8.01650419       7.71053775       0.00896844       0.01282676      -0.01983372       0.00000000
H       10.06536702       7.09989001       6.56072680      -0.01099917       0.00492997       0.00581497       0.00000000
H        8.44262739       7.60511282       4.72638623      -0.00589980       0.00166196       0.00831993       0.00000000
H        7.51760214       8.65766916       5.80672955       0.01368716      -0.00552407       0.01028865       0.00000000
H        6.99076491       6.69508648       7.27863150      -0.00502233      -0.01307266      -0.01606788       0.00000000
H        7.91598315       5.63079211       6.19862768      -0.01210131       0.00104900       0.00838571       0.00000000
H        6.34779739       6.16841503       4.30993065       0.00946955      -0.01659623      -0.01208734       0.00000000
H        5.43797359       7.26486754       5.37870340      -0.01826406      -0.00942552      -0.00014695       0.00000000
H        5.74707020       4.33615949       5.77174815      -0.00438522      -0.01818238      -0.01471018       0.00000000
H        4.89762505       5.35117357       6.76623387      -0.01391887      -0.00847536       0.01355472       0.00000000
H        4.39416599       5.11100122       5.20688379       0.01042682      -0.00307969      -0.01847166       0.00000000
O       10.97394798       9.54219167       8.58332065       0.01907923       0.00418896       0.00520892       0.00000000
H       11.67637583       9.74823909       5.09848274      -0.01734713      -0.00743488      -0.00143889       0.00000000
