20
Lattice="13.600000000000001 0.0 0.0 0.0 12.8 0.0 0.0 0.0 12.8" Properties=species:S:1:pos:R:3:forces:R:3:magmoms:R:1 Energy:=T -40373.4140031=T eV=T PBE+vdW=T (tier=T 2=T basis)=T energy=-113.50870864630829 dipole="-2.035023146219137 -0.8538077950071685 -1.8107276705400062" magmom=0.0 free_energy=-113.50870864630829 pbc="F F F"
N        7.20013113       7.60361970       5.23233542      -0.00973335       0.00303595       0.00662147       0.00000000
C        7.09747463       7.85492014       6.71115596       0.01491319      -0.00211317       0.03356172       0.00000000
C        8.52376324       8.00654701       7.31144319       0.00610150      -0.04755590       0.01164317       0.00000000
O        8.57412556       8.43859001       8.49560998       0.00967664      -0.01860597      -0.02614950       0.00000000
H        7.36477996       8.47171895       4.71160343       0.00742364       0.00937513      -0.00609123       0.00000000
H        6.31719772       7.17167448       4.88137032       0.00412825      -0.02700729      -0.00502736       0.00000000
H        6.55696283       8.80193329       6.84667015      -0.01736047      -0.00935501      -0.03853133       0.00000000
C        6.33616607       6.71635176       7.39737056       0.00901032      -0.01378716       0.00582959       0.00000000
C        4.82916846       6.67411825       7.14370346      -0.00333716       0.00469021      -0.02299287       0.00000000
S        4.29838745       6.28647786       5.43448423      -0.01789603      -0.00254609      -0.00614933       0.00000000
C        4.69770655       4.52017354       5.31449882      -0.00162861      -0.00115928       0.00064023       0.00000000
H        6.47961153       6.85387657       8.47884821      -0.00054329       0.00017703       0.01053485       0.00000000
H        6.80655743       5.75361416       7.14200181      -0.00855026      -0.02713232      -0.00892839       0.00000000
H        4.38180925       7.65781895       7.34622641      -0.01587429       0.00352200       0.01448429       0.00000000
H        4.35107866       5.94168273       7.80989805       0.00128621       0.01360323      -0.00279036       0.00000000
H        5.75603966       4.33481556       5.53221358       0.00517125       0.00405083      -0.01902713       0.00000000
H        4.48891187       4.22883725       4.27818074       0.00186664       0.00516916      -0.00391554       0.00000000
H        4.06534204       3.93300780       5.99231387      -0.00872890       0.02885251       0.02204839       0.00000000
O        9.49583378       7.65809327       6.58066151       0.00273029       0.01448286      -0.01594394       0.00000000
H        8.00427095       6.98282382       5.05717575       0.00740453       0.00768311       0.01173090       0.00000000
