23
Lattice="16.0 0.0 0.0 0.0 13.600000000000001 0.0 0.0 0.0 12.8" Properties=species:S:1:pos:R:3:forces:R:3:magmoms:R:1 Energy:=T -33641.9072367=T eV=T PBE+vdW=T (tier=T 2=T basis)=T energy=-145.40462160607774 dipole="-1.694067571013102 -2.354082914166693 -0.8052627904979764" magmom=0.0 free_energy=-145.40462160607774 pbc="F F F"
N        9.81891988       6.03470692       6.40097086       0.00985589      -0.02832800       0.01007678       0.00000000
C        9.56900807       7.51203523       6.33274979       0.02264603       0.00470005      -0.01320075       0.00000000
C       10.81894963       8.24535479       6.89053784       0.00437934       0.01698138       0.02400461       0.00000000
O       10.90110607       9.47188448       6.62004642      -0.00992989       0.02638077      -0.02472985       0.00000000
H       10.27807323       5.69552985       5.54924263      -0.00018306      -0.01040193      -0.02489261       0.00000000
H       10.47361003       5.87451479       7.18702161       0.01993699       0.01539546       0.03993392       0.00000000
H        9.43048293       7.76961101       5.27802589      -0.01436398      -0.01220735      -0.03660507       0.00000000
C        8.30988165       7.89984815       7.13776202      -0.02697336      -0.01949889       0.01005123       0.00000000
C        7.13020533       7.03410422       6.77664951      -0.03948225      -0.01143298       0.01487767       0.00000000
C        6.83899737       5.89388963       7.54411882      -0.00032223      -0.01457995      -0.01333475       0.00000000
C        6.37293659       7.27853981       5.62015837       0.01099206      -0.01582809      -0.02778091       0.00000000
C        5.83742714       5.00050489       7.15022838      -0.02493193       0.00220454       0.00152701       0.00000000
C        5.36336094       6.39534824       5.23192915       0.00653340      -0.02658191      -0.00914011       0.00000000
C        5.10055951       5.24776163       5.98981618      -0.00985437       0.00340174      -0.00999218       0.00000000
H        8.10838673       8.95674452       6.91799724       0.00506114      -0.01790601      -0.00778469       0.00000000
H        8.52211003       7.81648053       8.21397806       0.01079587      -0.02898831       0.01051238       0.00000000
H        7.41723989       5.69693188       8.45138910      -0.01353611       0.01341513       0.00096234       0.00000000
H        8.95784267       5.48827297       6.53751240      -0.04411739      -0.01391421       0.00601866       0.00000000
H        5.64442361       4.10496279       7.74449263      -0.01155320       0.02761990       0.00027473       0.00000000
H        4.79368253       6.58842819       4.32044821      -0.01640440       0.01896614       0.02277292       0.00000000
H        4.32942337       4.54463841       5.67106058      -0.02846972       0.01068242       0.00923573       0.00000000
O       11.61408770       7.55551228       7.59435414       0.01882687      -0.02525923       0.00110319       0.00000000
H        6.59358300       8.15461963       5.00550125      -0.00536007       0.00787636       0.01614025       0.00000000
