17
Lattice="12.8 0.0 0.0 0.0 12.0 0.0 0.0 0.0 12.8" Properties=species:S:1:pos:R:3:forces:R:3:magmoms:R:1 Energy:=T -29461.8662475=T eV=T PBE+vdW=T (tier=T 2=T basis)=T energy=-102.06259532997072 dipole="-2.660800450467204 0.5968098786579121 -1.2719373268028666" magmom=0.0 free_energy=-102.06259532997072 pbc="F F F"
N        6.20051357       6.79931943       5.58987490      -0.00188606      -0.01861526       0.01405636       0.00000000
C        6.59985016       6.71558311       7.04604686       0.01503070       0.00389510       0.01368127       0.00000000
C        8.08507001       6.26052073       7.09772306      -0.00262656       0.00004174      -0.00276007       0.00000000
O        8.60049065       6.17859154       8.24166168       0.00204030      -0.00678686      -0.00202480       0.00000000
H        6.02768967       7.76095217       5.28390282      -0.00595302       0.00447402       0.01140033       0.00000000
H        6.53024511       7.71593145       7.48653257       0.00251577      -0.00131941       0.03005515       0.00000000
C        5.60028693       5.72177873       7.66723327       0.00409197       0.00508428      -0.00256856       0.00000000
C        5.11909655       4.88077091       6.47643748       0.00466718      -0.00432768       0.00040857       0.00000000
C        5.01172856       5.90592192       5.35500826      -0.01184128      -0.01063501       0.00182847       0.00000000
H        4.75583065       6.27043694       8.10803359      -0.00339383      -0.00640928      -0.00701452       0.00000000
H        6.07297970       5.12727757       8.45786427       0.00009419      -0.00110378      -0.00571440       0.00000000
H        4.16009916       4.38284527       6.66456632      -0.00677405       0.01358441      -0.00321503       0.00000000
H        5.86118613       4.11206704       6.21500723       0.00336237      -0.01058535       0.02506102       0.00000000
H        4.11082244       6.52337501       5.45194049       0.00260768       0.00642674       0.02548859       0.00000000
H        5.06482949       5.49679326       4.34122763       0.01385278      -0.00602555      -0.00350982       0.00000000
O        8.64328562       6.02588933       5.98166610      -0.02821546      -0.02678664       0.00294439       0.00000000
H        7.05987800       6.45550096       5.09977690      -0.01680495       0.00739524      -0.01413137       0.00000000
