14
Lattice="12.8 0.0 0.0 0.0 12.0 0.0 0.0 0.0 12.0" Properties=species:S:1:pos:R:3:forces:R:3:magmoms:R:1 Energy:=T -29403.7737225=T eV=T PBE+vdW=T (tier=T 2=T basis)=T energy=-83.82488969678867 dipole="-2.442592155523331 0.24934691133503883 -2.1184577349322047" magmom=0.0 free_energy=-83.82488969678867 pbc="F F F"
N        6.40268329       6.39553258       4.60001287       0.00587497       0.00372230       0.01548261       0.00000000
C        6.31552207       6.75015250       6.05265462       0.01913593       0.01395330       0.00554867       0.00000000
C        7.70712500       6.47169074       6.70579065      -0.00340454       0.02092368      -0.00400225       0.00000000
O        7.76631693       6.57892379       7.95724740      -0.00817671       0.03211854      -0.01853403       0.00000000
H        6.01591048       5.45649243       4.43733539       0.00440430      -0.00047186      -0.01128221       0.00000000
H        7.41663772       6.36098727       4.37599274       0.00720483      -0.02259079       0.00084103       0.00000000
H        6.13294599       7.83123979       6.11815459       0.01184866       0.01156757       0.00898977       0.00000000
C        5.16119684       6.01854666       6.70778696       0.00116325       0.00712734      -0.00540946       0.00000000
O        5.40088905       4.60768897       6.59199898       0.00133272      -0.02371851       0.01672102       0.00000000
H        4.21751142       6.28904106       6.21029293      -0.03420752       0.01815595      -0.00526137       0.00000000
H        5.10892300       6.33548191       7.75969924      -0.01678702      -0.01700765       0.01285601       0.00000000
H        4.54973964       4.14945550       6.70789069       0.00870009       0.00278660       0.00074342       0.00000000
O        8.65277994       6.20759792       5.90487385       0.01060775      -0.00183841       0.00118187       0.00000000
H        5.92161098       7.06032461       3.98579903      -0.00905359       0.00942797       0.01464466       0.00000000
