17
Lattice="13.600000000000001 0.0 0.0 0.0 12.0 0.0 0.0 0.0 12.8" Properties=species:S:1:pos:R:3:forces:R:3:magmoms:R:1 Energy:=T -30473.4748792=T eV=T PBE+vdW=T (tier=T 2=T basis)=T energy=-100.41479101115151 dipole="-1.810536051881669 -1.2439972369605907 -2.282058762748356" magmom=0.0 free_energy=-100.41479101115151 pbc="F F F"
N        7.59707241       6.79729378       5.03075846      -0.00863544       0.01407226      -0.01614798       0.00000000
C        7.07547034       7.11785629       6.39866391      -0.01492804       0.00001184      -0.00784638       0.00000000
C        8.25711232       7.69379032       7.23904464       0.00611052      -0.02733758       0.02358410       0.00000000
O        9.35006912       7.87618081       6.62367959      -0.01298647      -0.00458082      -0.00857209       0.00000000
H        8.48959265       7.32232260       4.94765128       0.01725922      -0.00405867      -0.01838778       0.00000000
H        6.94925599       7.05074525       4.27915454       0.01762566       0.02974734      -0.01669944       0.00000000
H        6.33697701       7.92223486       6.29133811      -0.00773913       0.01480570       0.00595198       0.00000000
C        6.39308065       5.89781670       7.02831701       0.01558828      -0.00228298      -0.00662066       0.00000000
O        7.34447222       4.81932396       6.92059871       0.02484606      -0.01178654      -0.00654720       0.00000000
C        5.05530703       5.53837328       6.39319569       0.01047273       0.00989324       0.00356875       0.00000000
H        6.24029916       6.14867086       8.09035241      -0.01052700       0.00225412      -0.00140489       0.00000000
H        6.87968288       3.98133031       7.09896189      -0.00740753       0.02348014       0.00980129       0.00000000
H        4.64277181       4.64418000       6.88358660       0.03214959      -0.00132824      -0.02147784       0.00000000
H        5.14986790       5.33746096       5.31548125       0.01926638      -0.01379676       0.02113758       0.00000000
H        4.33264409       6.35466376       6.53308488       0.02231710       0.02264559      -0.00739789       0.00000000
O        8.00108263       7.95768074       8.44150007       0.00473292       0.00539543       0.01429668       0.00000000
H        7.82374695       5.79510627       4.95358660      -0.03596816      -0.00088045       0.02342622       0.00000000
