24
Lattice="17.6 0.0 0.0 0.0 12.0 0.0 0.0 0.0 12.8" Properties=species:S:1:pos:R:3:forces:R:3:magmoms:R:1 Energy:=T -35690.490581=T eV=T PBE+vdW=T (tier=T 2=T basis)=T energy=-152.72795411726318 dipole="-2.7460509831411586 0.37204372107359573 -1.311910367139606" magmom=0.0 free_energy=-152.72795411726318 pbc="F F F"
N       10.64088569       7.00995155       5.61393549      -0.00556143      -0.01069548       0.00712058       0.00000000
C       10.87090216       6.67768467       7.06099808      -0.03230470      -0.00815748      -0.02003837       0.00000000
C       12.39978719       6.71770220       7.33816245      -0.00276640       0.01254135       0.00295806       0.00000000
O       12.74195378       6.78905719       8.54920102       0.01573893      -0.02787205      -0.00911148       0.00000000
H        9.80142543       6.54909284       5.23367801       0.01477176       0.00759812       0.00864015       0.00000000
H       10.54207118       8.02231417       5.47499565      -0.00652305      -0.02960514      -0.01413409       0.00000000
H       10.35693372       7.44022676       7.65854902      -0.00117911      -0.00138401      -0.00868769       0.00000000
C       10.29900085       5.27883085       7.38571838       0.00775298       0.00135882      -0.00972954       0.00000000
C        8.87686597       5.11681387       6.91104903       0.00842552      -0.02940213       0.00278358       0.00000000
C        8.60844453       4.50036119       5.67769558      -0.00225494      -0.00490825      -0.00237583       0.00000000
C        7.79521489       5.64490261       7.63372537       0.00657025      -0.03307380      -0.00222669       0.00000000
C        7.31409138       4.43616043       5.15954679       0.00220859      -0.00990216       0.00110818       0.00000000
C        6.49525556       5.58391285       7.13166215       0.00212926       0.01800381      -0.00168324       0.00000000
C        6.25419082       4.99523079       5.88126732       0.00038329      -0.02832472       0.01751132       0.00000000
O        5.00384184       4.93138161       5.32468468      -0.00413291      -0.01429719       0.01397939       0.00000000
H       10.37197013       5.15450111       8.47483590      -0.00859484      -0.01041988      -0.00829680       0.00000000
H       10.94084645       4.51604236       6.91920997      -0.01374135      -0.01394340      -0.01200779       0.00000000
H        9.43321792       4.05890802       5.11116458      -0.00938073       0.00655090      -0.00920579       0.00000000
H        7.97113516       6.10751790       8.60871293      -0.01545924       0.00920397      -0.03341736       0.00000000
H        7.11820144       3.95097115       4.20222700      -0.00297504       0.00301496      -0.01994077       0.00000000
H        5.66242763       5.99785171       7.70446076      -0.01030726       0.00234049      -0.00088392       0.00000000
H        4.35218928       5.32579739       5.93606971       0.00747046      -0.00075946       0.00826467       0.00000000
O       13.15631661       6.63367106       6.32587743       0.01852711      -0.00147408      -0.00414567       0.00000000
H       11.48785484       6.70398546       5.10017617      -0.02116622       0.01179506       0.00484874       0.00000000
