
  ___ ___ ___ _ _ _  
 |   |   |_  | | | | 
 | | | | | . | | | | 
 |__ |  _|___|_____|  23.9.2b1
 |___|_|             

User:   fr_ez1021@n0606
Date:   Fri Oct  6 21:42:01 2023
Arch:   x86_64
Pid:    3026728
CWD:    /lustre/home/fr/fr_fr/fr_ez1021/sims/amino_acids_publish/scripts
Python: 3.8.3
gpaw:   /home/fr/fr_fr/fr_ez1021/source/origin/gpaw/gpaw (68657f1768)
_gpaw:  /home/fr/fr_fr/fr_ez1021/source/origin/gpaw/build/lib.linux-x86_64-3.8/
        _gpaw.cpython-38-x86_64-linux-gnu.so (d6c5f22bb1)
ase:    /home/fr/fr_fr/fr_ez1021/source/origin/ase/ase (version 3.23.0b1-4bd916e410)
numpy:  /opt/bwhpc/common/numlib/python_numpy/1.19.0_python-3.8.3/lib/python3.8/site-packages/numpy-1.19.0-py3.8-linux-x86_64.egg/numpy (version 1.19.0)
scipy:  /opt/bwhpc/common/numlib/python_scipy/1.5.0_numpy-1.19.0_python-3.8.3/lib/python3.8/site-packages/scipy-1.5.0-py3.8-linux-x86_64.egg/scipy (version 1.5.0)
libxc:  5.1.7
units:  Angstrom and eV
cores: 16
OpenMP: False
OMP_NUM_THREADS: 1

Input parameters:
  mode: fd
  xc: PBE

Implicit solvation parameters:
Cavity:  EffectivePotentialCavity
  Surface Calculator: GradientSurface with 3 nn
  Volume Calculator: KB51Volume
    compressibility: 72.57860092224
    temperature:     298.15
  EffectivePotentialCavity
    Potential: Power12Potential
      u0: 0.18eV
      pbc_cutoff: 1e-06
      tiny: 1e-10
    temperature: 298.15K
Dielectric:
  Type: LinearDielectric
  Solvent dielectric constant: 1.77
Interaction: SurfaceInteraction
  subscript: surf
  Surface_tension: 0.0011484376791625194 eV/(Angstrom^2)

System changes: positions, numbers, cell, pbc, initial_charges, initial_magmoms 

Initialize ...

species:
  N:
    name: Nitrogen
    id: f7500608b86eaa90eef8b1d9a670dc53
    Z: 7.0
    valence: 5
    core: 2
    charge: 0.0
    file: /home/fr/fr_fr/fr_ez1021/source/gpaw-setups/gpaw-setups-0.9.20000/N.PBE.gz
    compensation charges: {type: gauss,
                           rc: 0.18,
                           lmax: 2}
    cutoffs: {filter: 1.11,
              core: 0.96}
    valence states:
      #              energy  rcut
      - 2s(2.00)   -18.583   0.603
      - 2p(3.00)    -7.089   0.529
      -  s           8.629   0.603
      -  p          20.123   0.529
      -  d           0.000   0.577
  
    # Using partial waves for N as LCAO basis

  C:
    name: Carbon
    id: 4aa54d4b901d75f77cc0ea3eec22967b
    Z: 6.0
    valence: 4
    core: 2
    charge: 0.0
    file: /home/fr/fr_fr/fr_ez1021/source/gpaw-setups/gpaw-setups-0.9.20000/C.PBE.gz
    compensation charges: {type: gauss,
                           rc: 0.20,
                           lmax: 2}
    cutoffs: {filter: 1.14,
              core: 1.14}
    valence states:
      #              energy  rcut
      - 2s(2.00)   -13.751   0.635
      - 2p(2.00)    -5.284   0.635
      -  s          13.461   0.635
      -  p          21.927   0.635
      -  d           0.000   0.635
  
    # Using partial waves for C as LCAO basis

  O:
    name: Oxygen
    id: 32ecd46bf208036f09c70b0ec9a88b78
    Z: 8.0
    valence: 6
    core: 2
    charge: 0.0
    file: /home/fr/fr_fr/fr_ez1021/source/gpaw-setups/gpaw-setups-0.9.20000/O.PBE.gz
    compensation charges: {type: gauss,
                           rc: 0.21,
                           lmax: 2}
    cutoffs: {filter: 1.17,
              core: 0.83}
    valence states:
      #              energy  rcut
      - 2s(2.00)   -23.961   0.688
      - 2p(4.00)    -9.029   0.598
      -  s           3.251   0.688
      -  p          18.182   0.598
      -  d           0.000   0.619
  
    # Using partial waves for O as LCAO basis

  H:
    name: Hydrogen
    id: d65de229564ff8ea4db303e23b6d1ecf
    Z: 1.0
    valence: 1
    core: 0
    charge: 0.0
    file: /home/fr/fr_fr/fr_ez1021/source/gpaw-setups/gpaw-setups-0.9.20000/H.PBE.gz
    compensation charges: {type: gauss,
                           rc: 0.15,
                           lmax: 2}
    cutoffs: {filter: 0.85,
              core: 0.53}
    valence states:
      #              energy  rcut
      - 1s(1.00)    -6.494   0.476
      -  s          20.717   0.476
      -  p           0.000   0.476
  
    # Using partial waves for H as LCAO basis

Reference energy: -16349.221583  # eV

Spin-paired calculation

Convergence criteria:
 Maximum [total energy] change in last 3 cyles: 0.0005 eV / valence electron
 Maximum integral of absolute [dens]ity change: 0.0001 electrons / valence electron
 Maximum integral of absolute [eigenst]ate change: 4e-08 eV^2 / valence electron
 Maximum number of scf [iter]ations: 333
 (Square brackets indicate name in SCF output, whereas a 'c' in
 the SCF output indicates the quantity has converged.)

Symmetries present (total): 1

  ( 1  0  0)
  ( 0  1  0)
  ( 0  0  1)

1 k-point (Gamma)
1 k-point in the irreducible part of the Brillouin zone
       k-points in crystal coordinates                weights
   0:     0.00000000    0.00000000    0.00000000          1/1

Wave functions: Uniform real-space grid
  Kinetic energy operator: 6*3+1=19 point O(h^6) finite-difference Laplacian
  ScaLapack parameters: grid=1x1, blocksize=None
  Wavefunction extrapolation:
    Improved wavefunction reuse through dual PAW basis 

Occupation numbers: # Zero width 

Eigensolver
   Davidson(niter=2) 

Densities:
  Coarse grid: 84*64*60 grid
  Fine grid: 168*128*120 grid
  Total Charge: 0.000000 

Density mixing:
  Method: separate
  Backend: pulay
  Linear mixing parameter: 0.25
  old densities: 3
  Damping of long wavelength oscillations: 1  # (no daming) 

Hamiltonian:
  XC and Coulomb potentials evaluated on a 168*128*120 grid
  Using the PBE Exchange-Correlation functional
  Interpolation: tri-quintic (5. degree polynomial)
  Poisson solver: Jacobi weighted FD solver with dielectric and 4 multi-grid levels
    Coarsest grid: 21 x 16 x 15 points
    Stencil: Weighted Finite Difference Operator
      6*3+1=19 point O(h^6) finite-difference Laplacian
      Finite-difference x-derivative with O(h^6) error (6 points)
      Finite-difference y-derivative with O(h^6) error (6 points)
      Finite-difference z-derivative with O(h^6) error (6 points)
    Max iterations: 1000
    Tolerance: 2.000000e-10

  Solvation:
    Cavity:  EffectivePotentialCavity
      Surface Calculator: GradientSurface with 3 nn
      Volume Calculator: KB51Volume
        compressibility: 72.57860092224
        temperature:     298.15
      EffectivePotentialCavity
        Potential: Power12Potential
          u0: 0.18eV
          pbc_cutoff: 1e-06
          tiny: 1e-10
        temperature: 298.15K    Dielectric:
      Type: LinearDielectric
      Solvent dielectric constant: 1.77    Interaction: SurfaceInteraction
      subscript: surf
      Surface_tension: 0.0011484376791625194 eV/(Angstrom^2)
XC parameters: PBE with 2 nearest neighbor stencil

Memory estimate:
  Process memory now: 150.39 MiB
  Calculator: 55.51 MiB
    Density: 5.25 MiB
      Arrays: 3.76 MiB
      Localized functions: 0.66 MiB
      Mixer: 0.82 MiB
    Hamiltonian: 36.72 MiB
      Arrays: 2.46 MiB
      XC: 0.00 MiB
      Poisson: 2.82 MiB
      vbar: 0.05 MiB
      Solvation: 31.39 MiB
    Wavefunctions: 13.54 MiB
      Arrays psit_nG: 6.31 MiB
      Eigensolver: 7.16 MiB
      Projections: 0.00 MiB
      Projectors: 0.07 MiB

Total number of cores used: 16
Domain decomposition: 4 x 2 x 2

Number of atoms: 26
Number of atomic orbitals: 62
Number of bands in calculation: 46
Number of valence electrons: 70
Bands to converge: occupied

... initialized

Initializing position-dependent things.

Solvation position-dependent initialization:
  Atomic radii for Power12Potential:
    Type    Radius   No. of atoms
       H     1.090     14
       O     1.520     2
       N     1.550     4
       C     1.700     6

Density initialized from atomic densities
Creating initial wave functions:
  46 bands from LCAO basis set

         .----------------------------------------.  
        /|                                        |  
       / |                                        |  
      /  |                                        |  
     /   |                                        |  
    /    |                                        |  
   /     |                                        |  
  /      |                                        |  
 *       |                                        |  
 |       |               H    H     O             |  
 |       |                     H                  |  
 |       |               HC  CH    C              |  
 |       |          HHNC H   N      O             |  
 |       |       H C   H     HH                   |  
 |       |     H H                                |  
 |       .----------------------------------------.  
 |      /                                        /   
 |     /                                        /    
 |    /                                        /     
 |   /                                        /      
 |  /                                        /       
 | /                                        /        
 |/                                        /         
 *----------------------------------------*          

Positions:
   0 N      9.550437    7.592794    5.349712    ( 0.0000,  0.0000,  0.0000)
   1 C     10.367905    7.103779    6.468735    ( 0.0000,  0.0000,  0.0000)
   2 C     11.898278    7.343902    6.311000    ( 0.0000,  0.0000,  0.0000)
   3 O     12.353810    7.573511    5.150609    ( 0.0000,  0.0000,  0.0000)
   4 H      9.622714    8.610804    5.293188    ( 0.0000,  0.0000,  0.0000)
   5 H      9.951771    7.243901    4.473705    ( 0.0000,  0.0000,  0.0000)
   6 H     10.058929    7.651822    7.373702    ( 0.0000,  0.0000,  0.0000)
   7 C     10.121139    5.605410    6.711421    ( 0.0000,  0.0000,  0.0000)
   8 C      8.742700    5.222711    7.274467    ( 0.0000,  0.0000,  0.0000)
   9 C      7.632078    4.939788    6.264043    ( 0.0000,  0.0000,  0.0000)
  10 N      7.174035    6.143700    5.576793    ( 0.0000,  0.0000,  0.0000)
  11 C      5.971948    6.241743    5.020566    ( 0.0000,  0.0000,  0.0000)
  12 N      5.549471    7.422513    4.544965    ( 0.0000,  0.0000,  0.0000)
  13 N      5.148808    5.183018    4.955223    ( 0.0000,  0.0000,  0.0000)
  14 H     10.888995    5.267224    7.420047    ( 0.0000,  0.0000,  0.0000)
  15 H     10.300699    5.057204    5.770514    ( 0.0000,  0.0000,  0.0000)
  16 H      8.407158    5.982746    7.999529    ( 0.0000,  0.0000,  0.0000)
  17 H      8.856752    4.289084    7.843905    ( 0.0000,  0.0000,  0.0000)
  18 H      6.777094    4.501638    6.800662    ( 0.0000,  0.0000,  0.0000)
  19 H      7.985743    4.189196    5.533839    ( 0.0000,  0.0000,  0.0000)
  20 H      7.914151    6.883305    5.424586    ( 0.0000,  0.0000,  0.0000)
  21 H      4.697365    7.484269    4.000471    ( 0.0000,  0.0000,  0.0000)
  22 H      4.211556    5.282393    4.583140    ( 0.0000,  0.0000,  0.0000)
  23 H      5.499992    4.246235    5.105880    ( 0.0000,  0.0000,  0.0000)
  24 O     12.588444    7.267192    7.375603    ( 0.0000,  0.0000,  0.0000)
  25 H      6.103875    8.260618    4.673154    ( 0.0000,  0.0000,  0.0000)

Unit cell:
           periodic     x           y           z      points  spacing
  1. axis:    no    16.800000    0.000000    0.000000    84     0.2000
  2. axis:    no     0.000000   12.800000    0.000000    64     0.2000
  3. axis:    no     0.000000    0.000000   12.000000    60     0.2000

  Lengths:  16.800000  12.800000  12.000000
  Angles:   90.000000  90.000000  90.000000

Effective grid spacing dv^(1/3) = 0.2000

     iter     time        total  log10-change:
                         energy   eigst   dens
iter:   1 21:42:04  -167.441620
iter:   2 21:42:06  -157.149076   +0.66  -0.69
iter:   3 21:42:08  -154.203814   +0.70  -0.90
iter:   4 21:42:09  -153.889090   -0.31  -1.18
iter:   5 21:42:10  -153.851807   -0.59  -1.49
iter:   6 21:42:11  -153.849168   -0.90  -2.12
iter:   7 21:42:12  -153.848171c  -1.65  -2.25
iter:   8 21:42:13  -153.845950c  -1.95  -2.37
iter:   9 21:42:14  -153.844562c  -2.04  -2.69
iter:  10 21:42:14  -153.844500c  -2.84  -2.74
iter:  11 21:42:15  -153.844446c  -3.18  -3.22
iter:  12 21:42:16  -153.844204c  -3.64  -3.42
iter:  13 21:42:16  -153.844434c  -4.02  -3.72
iter:  14 21:42:17  -153.844623c  -4.37  -4.02c
iter:  15 21:42:17  -153.844455c  -4.67  -4.26c
iter:  16 21:42:18  -153.844354c  -4.93  -4.42c
iter:  17 21:42:18  -153.844367c  -5.25  -4.65c
iter:  18 21:42:19  -153.844396c  -5.55  -4.97c
iter:  19 21:42:19  -153.844525c  -5.83  -5.23c
iter:  20 21:42:20  -153.844540c  -6.05  -5.35c
iter:  21 21:42:20  -153.844496c  -6.29  -5.50c
iter:  22 21:42:21  -153.844438c  -6.60  -5.86c
iter:  23 21:42:21  -153.844382c  -6.80  -6.01c
iter:  24 21:42:22  -153.844380c  -7.04  -6.13c
iter:  25 21:42:22  -153.844383c  -7.16  -6.16c
iter:  26 21:42:23  -153.844386c  -7.53c -6.16c

Converged after 26 iterations.

Dipole moment: (-5.300149, -0.975529, -1.092024) |e|*Ang

Energy contributions relative to reference atoms: (reference = -16349.221583)

Kinetic:       +152.537554
Potential:     -168.490700
External:        +0.000000
XC:            -142.488438
Entropy (-ST):   +0.000000
Local:           +4.335459
Interactions  
 surf:           +0.261739
--------------------------
Free energy:   -153.844386
Extrapolated:  -153.844386

Solvation cavity surface area: 227.90881
Solvation cavity volume: 243.44570
 Band  Eigenvalues  Occupancy
    0    -26.49925    2.00000
    1    -24.03751    2.00000
    2    -23.62836    2.00000
    3    -23.53216    2.00000
    4    -21.97231    2.00000
    5    -21.62306    2.00000
    6    -19.85268    2.00000
    7    -18.10339    2.00000
    8    -16.91042    2.00000
    9    -16.11743    2.00000
   10    -15.66512    2.00000
   11    -14.94886    2.00000
   12    -14.16243    2.00000
   13    -13.48885    2.00000
   14    -13.38626    2.00000
   15    -12.49523    2.00000
   16    -12.10264    2.00000
   17    -11.92471    2.00000
   18    -11.57445    2.00000
   19    -11.09429    2.00000
   20    -10.53729    2.00000
   21    -10.18233    2.00000
   22     -9.52491    2.00000
   23     -9.13447    2.00000
   24     -8.71512    2.00000
   25     -8.33351    2.00000
   26     -8.06388    2.00000
   27     -7.93250    2.00000
   28     -7.90600    2.00000
   29     -7.32488    2.00000
   30     -7.05741    2.00000
   31     -6.47159    2.00000
   32     -4.55086    2.00000
   33     -4.17762    2.00000
   34     -3.79329    2.00000
   35     -1.52187    0.00000
   36     -1.40559    0.00000
   37     -0.72119    0.00000
   38     -0.43659    0.00000
   39     -0.15076    0.00000
   40      0.06826    0.00000
   41      0.20359    0.00000
   42      0.45962    0.00000
   43      0.77549    0.00000
   44      0.96069    0.00000
   45      1.11564    0.00000

Fermi level: -2.65758

Gap: 2.271 eV
Transition (v -> c):
  (s=0, k=0, n=34, [0.00, 0.00, 0.00]) -> (s=0, k=0, n=35, [0.00, 0.00, 0.00])
Input parameters:
  external: {direction: [1. 0. 0.],
             name: ConstantElectricField,
             strength: 0.01}

Initialize ...

species:
  N:
    name: Nitrogen
    id: f7500608b86eaa90eef8b1d9a670dc53
    Z: 7.0
    valence: 5
    core: 2
    charge: 0.0
    file: /home/fr/fr_fr/fr_ez1021/source/gpaw-setups/gpaw-setups-0.9.20000/N.PBE.gz
    compensation charges: {type: gauss,
                           rc: 0.18,
                           lmax: 2}
    cutoffs: {filter: 1.11,
              core: 0.96}
    valence states:
      #              energy  rcut
      - 2s(2.00)   -18.583   0.603
      - 2p(3.00)    -7.089   0.529
      -  s           8.629   0.603
      -  p          20.123   0.529
      -  d           0.000   0.577
  
    # Using partial waves for N as LCAO basis

  C:
    name: Carbon
    id: 4aa54d4b901d75f77cc0ea3eec22967b
    Z: 6.0
    valence: 4
    core: 2
    charge: 0.0
    file: /home/fr/fr_fr/fr_ez1021/source/gpaw-setups/gpaw-setups-0.9.20000/C.PBE.gz
    compensation charges: {type: gauss,
                           rc: 0.20,
                           lmax: 2}
    cutoffs: {filter: 1.14,
              core: 1.14}
    valence states:
      #              energy  rcut
      - 2s(2.00)   -13.751   0.635
      - 2p(2.00)    -5.284   0.635
      -  s          13.461   0.635
      -  p          21.927   0.635
      -  d           0.000   0.635
  
    # Using partial waves for C as LCAO basis

  O:
    name: Oxygen
    id: 32ecd46bf208036f09c70b0ec9a88b78
    Z: 8.0
    valence: 6
    core: 2
    charge: 0.0
    file: /home/fr/fr_fr/fr_ez1021/source/gpaw-setups/gpaw-setups-0.9.20000/O.PBE.gz
    compensation charges: {type: gauss,
                           rc: 0.21,
                           lmax: 2}
    cutoffs: {filter: 1.17,
              core: 0.83}
    valence states:
      #              energy  rcut
      - 2s(2.00)   -23.961   0.688
      - 2p(4.00)    -9.029   0.598
      -  s           3.251   0.688
      -  p          18.182   0.598
      -  d           0.000   0.619
  
    # Using partial waves for O as LCAO basis

  H:
    name: Hydrogen
    id: d65de229564ff8ea4db303e23b6d1ecf
    Z: 1.0
    valence: 1
    core: 0
    charge: 0.0
    file: /home/fr/fr_fr/fr_ez1021/source/gpaw-setups/gpaw-setups-0.9.20000/H.PBE.gz
    compensation charges: {type: gauss,
                           rc: 0.15,
                           lmax: 2}
    cutoffs: {filter: 0.85,
              core: 0.53}
    valence states:
      #              energy  rcut
      - 1s(1.00)    -6.494   0.476
      -  s          20.717   0.476
      -  p           0.000   0.476
  
    # Using partial waves for H as LCAO basis

Reference energy: -16349.221583  # eV

Spin-paired calculation

Convergence criteria:
 Maximum [total energy] change in last 3 cyles: 0.0005 eV / valence electron
 Maximum integral of absolute [dens]ity change: 0.0001 electrons / valence electron
 Maximum integral of absolute [eigenst]ate change: 4e-08 eV^2 / valence electron
 Maximum number of scf [iter]ations: 333
 (Square brackets indicate name in SCF output, whereas a 'c' in
 the SCF output indicates the quantity has converged.)

Symmetries present (total): 1

  ( 1  0  0)
  ( 0  1  0)
  ( 0  0  1)

1 k-point (Gamma)
1 k-point in the irreducible part of the Brillouin zone
       k-points in crystal coordinates                weights
   0:     0.00000000    0.00000000    0.00000000          1/1

Wave functions: Uniform real-space grid
  Kinetic energy operator: 6*3+1=19 point O(h^6) finite-difference Laplacian
  ScaLapack parameters: grid=1x1, blocksize=None
  Wavefunction extrapolation:
    Improved wavefunction reuse through dual PAW basis 

Occupation numbers: # Zero width 

Eigensolver
   Davidson(niter=2) 

Densities:
  Coarse grid: 84*64*60 grid
  Fine grid: 168*128*120 grid
  Total Charge: 0.000000 

Density mixing:
  Method: separate
  Backend: pulay
  Linear mixing parameter: 0.25
  old densities: 3
  Damping of long wavelength oscillations: 1  # (no daming) 

Hamiltonian:
  XC and Coulomb potentials evaluated on a 168*128*120 grid
  Using the PBE Exchange-Correlation functional
  External potential:
    Constant electric field: (0.010, 0.000, 0.000) V/Ang
  Interpolation: tri-quintic (5. degree polynomial)
  Poisson solver: Jacobi weighted FD solver with dielectric and 4 multi-grid levels
    Coarsest grid: 21 x 16 x 15 points
    Stencil: Weighted Finite Difference Operator
      6*3+1=19 point O(h^6) finite-difference Laplacian
      Finite-difference x-derivative with O(h^6) error (6 points)
      Finite-difference y-derivative with O(h^6) error (6 points)
      Finite-difference z-derivative with O(h^6) error (6 points)
    Max iterations: 1000
    Tolerance: 2.000000e-10

  Solvation:
    Cavity:  EffectivePotentialCavity
      Surface Calculator: GradientSurface with 3 nn
      Volume Calculator: KB51Volume
        compressibility: 72.57860092224
        temperature:     298.15
      EffectivePotentialCavity
        Potential: Power12Potential
          u0: 0.18eV
          pbc_cutoff: 1e-06
          tiny: 1e-10
        temperature: 298.15K    Dielectric:
      Type: LinearDielectric
      Solvent dielectric constant: 1.77    Interaction: SurfaceInteraction
      subscript: surf
      Surface_tension: 0.0011484376791625194 eV/(Angstrom^2)
XC parameters: PBE with 2 nearest neighbor stencil

Memory estimate:
  Process memory now: 249.50 MiB
  Calculator: 55.51 MiB
    Density: 5.25 MiB
      Arrays: 3.76 MiB
      Localized functions: 0.66 MiB
      Mixer: 0.82 MiB
    Hamiltonian: 36.72 MiB
      Arrays: 2.46 MiB
      XC: 0.00 MiB
      Poisson: 2.82 MiB
      vbar: 0.05 MiB
      Solvation: 31.39 MiB
    Wavefunctions: 13.54 MiB
      Arrays psit_nG: 6.31 MiB
      Eigensolver: 7.16 MiB
      Projections: 0.00 MiB
      Projectors: 0.07 MiB

Total number of cores used: 16
Domain decomposition: 4 x 2 x 2

Number of atoms: 26
Number of atomic orbitals: 62
Number of bands in calculation: 46
Number of valence electrons: 70
Bands to converge: occupied

... initialized

Initializing position-dependent things.

Solvation position-dependent initialization:
  Atomic radii for Power12Potential:
    Type    Radius   No. of atoms
       H     1.090     14
       O     1.520     2
       N     1.550     4
       C     1.700     6

Density initialized from atomic densities
Creating initial wave functions:
  46 bands from LCAO basis set

         .----------------------------------------.  
        /|                                        |  
       / |                                        |  
      /  |                                        |  
     /   |                                        |  
    /    |                                        |  
   /     |                                        |  
  /      |                                        |  
 *       |                                        |  
 |       |               H    H     O             |  
 |       |                     H                  |  
 |       |               HC  CH    C              |  
 |       |          HHNC H   N      O             |  
 |       |       H C   H     HH                   |  
 |       |     H H                                |  
 |       .----------------------------------------.  
 |      /                                        /   
 |     /                                        /    
 |    /                                        /     
 |   /                                        /      
 |  /                                        /       
 | /                                        /        
 |/                                        /         
 *----------------------------------------*          

Positions:
   0 N      9.550437    7.592794    5.349712    ( 0.0000,  0.0000,  0.0000)
   1 C     10.367905    7.103779    6.468735    ( 0.0000,  0.0000,  0.0000)
   2 C     11.898278    7.343902    6.311000    ( 0.0000,  0.0000,  0.0000)
   3 O     12.353810    7.573511    5.150609    ( 0.0000,  0.0000,  0.0000)
   4 H      9.622714    8.610804    5.293188    ( 0.0000,  0.0000,  0.0000)
   5 H      9.951771    7.243901    4.473705    ( 0.0000,  0.0000,  0.0000)
   6 H     10.058929    7.651822    7.373702    ( 0.0000,  0.0000,  0.0000)
   7 C     10.121139    5.605410    6.711421    ( 0.0000,  0.0000,  0.0000)
   8 C      8.742700    5.222711    7.274467    ( 0.0000,  0.0000,  0.0000)
   9 C      7.632078    4.939788    6.264043    ( 0.0000,  0.0000,  0.0000)
  10 N      7.174035    6.143700    5.576793    ( 0.0000,  0.0000,  0.0000)
  11 C      5.971948    6.241743    5.020566    ( 0.0000,  0.0000,  0.0000)
  12 N      5.549471    7.422513    4.544965    ( 0.0000,  0.0000,  0.0000)
  13 N      5.148808    5.183018    4.955223    ( 0.0000,  0.0000,  0.0000)
  14 H     10.888995    5.267224    7.420047    ( 0.0000,  0.0000,  0.0000)
  15 H     10.300699    5.057204    5.770514    ( 0.0000,  0.0000,  0.0000)
  16 H      8.407158    5.982746    7.999529    ( 0.0000,  0.0000,  0.0000)
  17 H      8.856752    4.289084    7.843905    ( 0.0000,  0.0000,  0.0000)
  18 H      6.777094    4.501638    6.800662    ( 0.0000,  0.0000,  0.0000)
  19 H      7.985743    4.189196    5.533839    ( 0.0000,  0.0000,  0.0000)
  20 H      7.914151    6.883305    5.424586    ( 0.0000,  0.0000,  0.0000)
  21 H      4.697365    7.484269    4.000471    ( 0.0000,  0.0000,  0.0000)
  22 H      4.211556    5.282393    4.583140    ( 0.0000,  0.0000,  0.0000)
  23 H      5.499992    4.246235    5.105880    ( 0.0000,  0.0000,  0.0000)
  24 O     12.588444    7.267192    7.375603    ( 0.0000,  0.0000,  0.0000)
  25 H      6.103875    8.260618    4.673154    ( 0.0000,  0.0000,  0.0000)

Unit cell:
           periodic     x           y           z      points  spacing
  1. axis:    no    16.800000    0.000000    0.000000    84     0.2000
  2. axis:    no     0.000000   12.800000    0.000000    64     0.2000
  3. axis:    no     0.000000    0.000000   12.000000    60     0.2000

  Lengths:  16.800000  12.800000  12.000000
  Angles:   90.000000  90.000000  90.000000

Effective grid spacing dv^(1/3) = 0.2000

     iter     time        total  log10-change:
                         energy   eigst   dens
iter:   1 21:42:26  -167.380077
iter:   2 21:42:28  -157.092858   +0.66  -0.69
iter:   3 21:42:29  -154.150491   +0.70  -0.90
iter:   4 21:42:31  -153.836212   -0.32  -1.18
iter:   5 21:42:32  -153.798954   -0.59  -1.49
iter:   6 21:42:33  -153.796245   -0.90  -2.12
iter:   7 21:42:34  -153.795244c  -1.65  -2.25
iter:   8 21:42:35  -153.793035c  -1.95  -2.37
iter:   9 21:42:35  -153.791649c  -2.04  -2.69
iter:  10 21:42:36  -153.791587c  -2.84  -2.74
iter:  11 21:42:37  -153.791536c  -3.18  -3.22
iter:  12 21:42:37  -153.791164c  -3.64  -3.42
iter:  13 21:42:38  -153.791511c  -4.02  -3.72
iter:  14 21:42:39  -153.791710c  -4.37  -4.02c
iter:  15 21:42:39  -153.791546c  -4.67  -4.26c
iter:  16 21:42:40  -153.791444c  -4.93  -4.42c
iter:  17 21:42:40  -153.791456c  -5.25  -4.65c
iter:  18 21:42:41  -153.791487c  -5.55  -4.97c
iter:  19 21:42:41  -153.791620c  -5.83  -5.22c
iter:  20 21:42:41  -153.791634c  -6.05  -5.35c
iter:  21 21:42:42  -153.791585c  -6.29  -5.49c
iter:  22 21:42:42  -153.791529c  -6.60  -5.86c
iter:  23 21:42:43  -153.791474c  -6.80  -6.01c
iter:  24 21:42:43  -153.791471c  -7.04  -6.13c
iter:  25 21:42:44  -153.791476c  -7.16  -6.16c
iter:  26 21:42:44  -153.791477c  -7.52c -6.14c

Converged after 26 iterations.

Dipole moment: (-5.281452, -0.974434, -1.089866) |e|*Ang

Energy contributions relative to reference atoms: (reference = -16349.221583)

Kinetic:       +152.546689
Potential:     -168.502864
External:        +0.052815
XC:            -142.485248
Entropy (-ST):   +0.000000
Local:           +4.335393
Interactions  
 surf:           +0.261739
--------------------------
Free energy:   -153.791477
Extrapolated:  -153.791477

Solvation cavity surface area: 227.90881
Solvation cavity volume: 243.44570
 Band  Eigenvalues  Occupancy
    0    -26.51874    2.00000
    1    -24.00675    2.00000
    2    -23.64389    2.00000
    3    -23.55396    2.00000
    4    -21.95630    2.00000
    5    -21.59388    2.00000
    6    -19.85329    2.00000
    7    -18.10178    2.00000
    8    -16.92379    2.00000
    9    -16.11996    2.00000
   10    -15.68209    2.00000
   11    -14.95972    2.00000
   12    -14.15651    2.00000
   13    -13.51105    2.00000
   14    -13.40375    2.00000
   15    -12.50536    2.00000
   16    -12.09191    2.00000
   17    -11.90815    2.00000
   18    -11.58351    2.00000
   19    -11.09572    2.00000
   20    -10.53552    2.00000
   21    -10.17631    2.00000
   22     -9.50337    2.00000
   23     -9.12118    2.00000
   24     -8.69935    2.00000
   25     -8.31690    2.00000
   26     -8.05760    2.00000
   27     -7.94516    2.00000
   28     -7.88384    2.00000
   29     -7.30154    2.00000
   30     -7.06957    2.00000
   31     -6.45940    2.00000
   32     -4.51792    2.00000
   33     -4.14772    2.00000
   34     -3.76175    2.00000
   35     -1.54126    0.00000
   36     -1.43669    0.00000
   37     -0.74136    0.00000
   38     -0.45313    0.00000
   39     -0.16010    0.00000
   40      0.05968    0.00000
   41      0.19439    0.00000
   42      0.45228    0.00000
   43      0.78086    0.00000
   44      0.94911    0.00000
   45      1.10835    0.00000

Fermi level: -2.65150

Gap: 2.220 eV
Transition (v -> c):
  (s=0, k=0, n=34, [0.00, 0.00, 0.00]) -> (s=0, k=0, n=35, [0.00, 0.00, 0.00])
Input parameters:
  external: {direction: [0. 1. 0.],
             name: ConstantElectricField,
             strength: 0.01}

Initialize ...

species:
  N:
    name: Nitrogen
    id: f7500608b86eaa90eef8b1d9a670dc53
    Z: 7.0
    valence: 5
    core: 2
    charge: 0.0
    file: /home/fr/fr_fr/fr_ez1021/source/gpaw-setups/gpaw-setups-0.9.20000/N.PBE.gz
    compensation charges: {type: gauss,
                           rc: 0.18,
                           lmax: 2}
    cutoffs: {filter: 1.11,
              core: 0.96}
    valence states:
      #              energy  rcut
      - 2s(2.00)   -18.583   0.603
      - 2p(3.00)    -7.089   0.529
      -  s           8.629   0.603
      -  p          20.123   0.529
      -  d           0.000   0.577
  
    # Using partial waves for N as LCAO basis

  C:
    name: Carbon
    id: 4aa54d4b901d75f77cc0ea3eec22967b
    Z: 6.0
    valence: 4
    core: 2
    charge: 0.0
    file: /home/fr/fr_fr/fr_ez1021/source/gpaw-setups/gpaw-setups-0.9.20000/C.PBE.gz
    compensation charges: {type: gauss,
                           rc: 0.20,
                           lmax: 2}
    cutoffs: {filter: 1.14,
              core: 1.14}
    valence states:
      #              energy  rcut
      - 2s(2.00)   -13.751   0.635
      - 2p(2.00)    -5.284   0.635
      -  s          13.461   0.635
      -  p          21.927   0.635
      -  d           0.000   0.635
  
    # Using partial waves for C as LCAO basis

  O:
    name: Oxygen
    id: 32ecd46bf208036f09c70b0ec9a88b78
    Z: 8.0
    valence: 6
    core: 2
    charge: 0.0
    file: /home/fr/fr_fr/fr_ez1021/source/gpaw-setups/gpaw-setups-0.9.20000/O.PBE.gz
    compensation charges: {type: gauss,
                           rc: 0.21,
                           lmax: 2}
    cutoffs: {filter: 1.17,
              core: 0.83}
    valence states:
      #              energy  rcut
      - 2s(2.00)   -23.961   0.688
      - 2p(4.00)    -9.029   0.598
      -  s           3.251   0.688
      -  p          18.182   0.598
      -  d           0.000   0.619
  
    # Using partial waves for O as LCAO basis

  H:
    name: Hydrogen
    id: d65de229564ff8ea4db303e23b6d1ecf
    Z: 1.0
    valence: 1
    core: 0
    charge: 0.0
    file: /home/fr/fr_fr/fr_ez1021/source/gpaw-setups/gpaw-setups-0.9.20000/H.PBE.gz
    compensation charges: {type: gauss,
                           rc: 0.15,
                           lmax: 2}
    cutoffs: {filter: 0.85,
              core: 0.53}
    valence states:
      #              energy  rcut
      - 1s(1.00)    -6.494   0.476
      -  s          20.717   0.476
      -  p           0.000   0.476
  
    # Using partial waves for H as LCAO basis

Reference energy: -16349.221583  # eV

Spin-paired calculation

Convergence criteria:
 Maximum [total energy] change in last 3 cyles: 0.0005 eV / valence electron
 Maximum integral of absolute [dens]ity change: 0.0001 electrons / valence electron
 Maximum integral of absolute [eigenst]ate change: 4e-08 eV^2 / valence electron
 Maximum number of scf [iter]ations: 333
 (Square brackets indicate name in SCF output, whereas a 'c' in
 the SCF output indicates the quantity has converged.)

Symmetries present (total): 1

  ( 1  0  0)
  ( 0  1  0)
  ( 0  0  1)

1 k-point (Gamma)
1 k-point in the irreducible part of the Brillouin zone
       k-points in crystal coordinates                weights
   0:     0.00000000    0.00000000    0.00000000          1/1

Wave functions: Uniform real-space grid
  Kinetic energy operator: 6*3+1=19 point O(h^6) finite-difference Laplacian
  ScaLapack parameters: grid=1x1, blocksize=None
  Wavefunction extrapolation:
    Improved wavefunction reuse through dual PAW basis 

Occupation numbers: # Zero width 

Eigensolver
   Davidson(niter=2) 

Densities:
  Coarse grid: 84*64*60 grid
  Fine grid: 168*128*120 grid
  Total Charge: 0.000000 

Density mixing:
  Method: separate
  Backend: pulay
  Linear mixing parameter: 0.25
  old densities: 3
  Damping of long wavelength oscillations: 1  # (no daming) 

Hamiltonian:
  XC and Coulomb potentials evaluated on a 168*128*120 grid
  Using the PBE Exchange-Correlation functional
  External potential:
    Constant electric field: (0.000, 0.010, 0.000) V/Ang
  Interpolation: tri-quintic (5. degree polynomial)
  Poisson solver: Jacobi weighted FD solver with dielectric and 4 multi-grid levels
    Coarsest grid: 21 x 16 x 15 points
    Stencil: Weighted Finite Difference Operator
      6*3+1=19 point O(h^6) finite-difference Laplacian
      Finite-difference x-derivative with O(h^6) error (6 points)
      Finite-difference y-derivative with O(h^6) error (6 points)
      Finite-difference z-derivative with O(h^6) error (6 points)
    Max iterations: 1000
    Tolerance: 2.000000e-10

  Solvation:
    Cavity:  EffectivePotentialCavity
      Surface Calculator: GradientSurface with 3 nn
      Volume Calculator: KB51Volume
        compressibility: 72.57860092224
        temperature:     298.15
      EffectivePotentialCavity
        Potential: Power12Potential
          u0: 0.18eV
          pbc_cutoff: 1e-06
          tiny: 1e-10
        temperature: 298.15K    Dielectric:
      Type: LinearDielectric
      Solvent dielectric constant: 1.77    Interaction: SurfaceInteraction
      subscript: surf
      Surface_tension: 0.0011484376791625194 eV/(Angstrom^2)
XC parameters: PBE with 2 nearest neighbor stencil

Memory estimate:
  Process memory now: 257.12 MiB
  Calculator: 55.51 MiB
    Density: 5.25 MiB
      Arrays: 3.76 MiB
      Localized functions: 0.66 MiB
      Mixer: 0.82 MiB
    Hamiltonian: 36.72 MiB
      Arrays: 2.46 MiB
      XC: 0.00 MiB
      Poisson: 2.82 MiB
      vbar: 0.05 MiB
      Solvation: 31.39 MiB
    Wavefunctions: 13.54 MiB
      Arrays psit_nG: 6.31 MiB
      Eigensolver: 7.16 MiB
      Projections: 0.00 MiB
      Projectors: 0.07 MiB

Total number of cores used: 16
Domain decomposition: 4 x 2 x 2

Number of atoms: 26
Number of atomic orbitals: 62
Number of bands in calculation: 46
Number of valence electrons: 70
Bands to converge: occupied

... initialized

Initializing position-dependent things.

Solvation position-dependent initialization:
  Atomic radii for Power12Potential:
    Type    Radius   No. of atoms
       H     1.090     14
       O     1.520     2
       N     1.550     4
       C     1.700     6

Density initialized from atomic densities
Creating initial wave functions:
  46 bands from LCAO basis set

         .----------------------------------------.  
        /|                                        |  
       / |                                        |  
      /  |                                        |  
     /   |                                        |  
    /    |                                        |  
   /     |                                        |  
  /      |                                        |  
 *       |                                        |  
 |       |               H    H     O             |  
 |       |                     H                  |  
 |       |               HC  CH    C              |  
 |       |          HHNC H   N      O             |  
 |       |       H C   H     HH                   |  
 |       |     H H                                |  
 |       .----------------------------------------.  
 |      /                                        /   
 |     /                                        /    
 |    /                                        /     
 |   /                                        /      
 |  /                                        /       
 | /                                        /        
 |/                                        /         
 *----------------------------------------*          

Positions:
   0 N      9.550437    7.592794    5.349712    ( 0.0000,  0.0000,  0.0000)
   1 C     10.367905    7.103779    6.468735    ( 0.0000,  0.0000,  0.0000)
   2 C     11.898278    7.343902    6.311000    ( 0.0000,  0.0000,  0.0000)
   3 O     12.353810    7.573511    5.150609    ( 0.0000,  0.0000,  0.0000)
   4 H      9.622714    8.610804    5.293188    ( 0.0000,  0.0000,  0.0000)
   5 H      9.951771    7.243901    4.473705    ( 0.0000,  0.0000,  0.0000)
   6 H     10.058929    7.651822    7.373702    ( 0.0000,  0.0000,  0.0000)
   7 C     10.121139    5.605410    6.711421    ( 0.0000,  0.0000,  0.0000)
   8 C      8.742700    5.222711    7.274467    ( 0.0000,  0.0000,  0.0000)
   9 C      7.632078    4.939788    6.264043    ( 0.0000,  0.0000,  0.0000)
  10 N      7.174035    6.143700    5.576793    ( 0.0000,  0.0000,  0.0000)
  11 C      5.971948    6.241743    5.020566    ( 0.0000,  0.0000,  0.0000)
  12 N      5.549471    7.422513    4.544965    ( 0.0000,  0.0000,  0.0000)
  13 N      5.148808    5.183018    4.955223    ( 0.0000,  0.0000,  0.0000)
  14 H     10.888995    5.267224    7.420047    ( 0.0000,  0.0000,  0.0000)
  15 H     10.300699    5.057204    5.770514    ( 0.0000,  0.0000,  0.0000)
  16 H      8.407158    5.982746    7.999529    ( 0.0000,  0.0000,  0.0000)
  17 H      8.856752    4.289084    7.843905    ( 0.0000,  0.0000,  0.0000)
  18 H      6.777094    4.501638    6.800662    ( 0.0000,  0.0000,  0.0000)
  19 H      7.985743    4.189196    5.533839    ( 0.0000,  0.0000,  0.0000)
  20 H      7.914151    6.883305    5.424586    ( 0.0000,  0.0000,  0.0000)
  21 H      4.697365    7.484269    4.000471    ( 0.0000,  0.0000,  0.0000)
  22 H      4.211556    5.282393    4.583140    ( 0.0000,  0.0000,  0.0000)
  23 H      5.499992    4.246235    5.105880    ( 0.0000,  0.0000,  0.0000)
  24 O     12.588444    7.267192    7.375603    ( 0.0000,  0.0000,  0.0000)
  25 H      6.103875    8.260618    4.673154    ( 0.0000,  0.0000,  0.0000)

Unit cell:
           periodic     x           y           z      points  spacing
  1. axis:    no    16.800000    0.000000    0.000000    84     0.2000
  2. axis:    no     0.000000   12.800000    0.000000    64     0.2000
  3. axis:    no     0.000000    0.000000   12.000000    60     0.2000

  Lengths:  16.800000  12.800000  12.000000
  Angles:   90.000000  90.000000  90.000000

Effective grid spacing dv^(1/3) = 0.2000

     iter     time        total  log10-change:
                         energy   eigst   dens
iter:   1 21:42:48  -167.431042
iter:   2 21:42:49  -157.139102   +0.66  -0.69
iter:   3 21:42:51  -154.194038   +0.70  -0.90
iter:   4 21:42:52  -153.879446   -0.31  -1.18
iter:   5 21:42:54  -153.842145   -0.59  -1.49
iter:   6 21:42:54  -153.839481   -0.90  -2.12
iter:   7 21:42:55  -153.838482c  -1.65  -2.25
iter:   8 21:42:56  -153.836263c  -1.95  -2.37
iter:   9 21:42:57  -153.834876c  -2.04  -2.69
iter:  10 21:42:58  -153.834812c  -2.84  -2.74
iter:  11 21:42:58  -153.834759c  -3.18  -3.22
iter:  12 21:42:59  -153.834384c  -3.64  -3.42
iter:  13 21:43:00  -153.834731c  -4.02  -3.72
iter:  14 21:43:00  -153.834931c  -4.37  -4.02c
iter:  15 21:43:01  -153.834765c  -4.67  -4.26c
iter:  16 21:43:01  -153.834664c  -4.93  -4.42c
iter:  17 21:43:02  -153.834679c  -5.25  -4.65c
iter:  18 21:43:02  -153.834709c  -5.54  -4.96c
iter:  19 21:43:03  -153.834841c  -5.83  -5.22c
iter:  20 21:43:03  -153.834856c  -6.05  -5.35c
iter:  21 21:43:04  -153.834806c  -6.29  -5.49c
iter:  22 21:43:04  -153.834749c  -6.60  -5.86c
iter:  23 21:43:04  -153.834695c  -6.80  -6.02c
iter:  24 21:43:05  -153.834692c  -7.04  -6.13c
iter:  25 21:43:05  -153.834697c  -7.16  -6.16c
iter:  26 21:43:06  -153.834698c  -7.52c -6.15c

Converged after 26 iterations.

Dipole moment: (-5.299055, -0.961893, -1.093304) |e|*Ang

Energy contributions relative to reference atoms: (reference = -16349.221583)

Kinetic:       +152.534268
Potential:     -168.488561
External:        +0.009619
XC:            -142.487209
Entropy (-ST):   +0.000000
Local:           +4.335447
Interactions  
 surf:           +0.261739
--------------------------
Free energy:   -153.834698
Extrapolated:  -153.834698

Solvation cavity surface area: 227.90881
Solvation cavity volume: 243.44570
 Band  Eigenvalues  Occupancy
    0    -26.50163    2.00000
    1    -24.02958    2.00000
    2    -23.62948    2.00000
    3    -23.53601    2.00000
    4    -21.96509    2.00000
    5    -21.61519    2.00000
    6    -19.85917    2.00000
    7    -18.10601    2.00000
    8    -16.91315    2.00000
    9    -16.11990    2.00000
   10    -15.66815    2.00000
   11    -14.94926    2.00000
   12    -14.16560    2.00000
   13    -13.49126    2.00000
   14    -13.38816    2.00000
   15    -12.50091    2.00000
   16    -12.09778    2.00000
   17    -11.92033    2.00000
   18    -11.57744    2.00000
   19    -11.09900    2.00000
   20    -10.54083    2.00000
   21    -10.18650    2.00000
   22     -9.52126    2.00000
   23     -9.13388    2.00000
   24     -8.71498    2.00000
   25     -8.33503    2.00000
   26     -8.06647    2.00000
   27     -7.93397    2.00000
   28     -7.90220    2.00000
   29     -7.32019    2.00000
   30     -7.06062    2.00000
   31     -6.46507    2.00000
   32     -4.54263    2.00000
   33     -4.16979    2.00000
   34     -3.78540    2.00000
   35     -1.52384    0.00000
   36     -1.40728    0.00000
   37     -0.72692    0.00000
   38     -0.43505    0.00000
   39     -0.15784    0.00000
   40      0.05802    0.00000
   41      0.21166    0.00000
   42      0.44731    0.00000
   43      0.77415    0.00000
   44      0.95276    0.00000
   45      1.12073    0.00000

Fermi level: -2.65462

Gap: 2.262 eV
Transition (v -> c):
  (s=0, k=0, n=34, [0.00, 0.00, 0.00]) -> (s=0, k=0, n=35, [0.00, 0.00, 0.00])
Input parameters:
  external: {direction: [0. 0. 1.],
             name: ConstantElectricField,
             strength: 0.01}

Initialize ...

species:
  N:
    name: Nitrogen
    id: f7500608b86eaa90eef8b1d9a670dc53
    Z: 7.0
    valence: 5
    core: 2
    charge: 0.0
    file: /home/fr/fr_fr/fr_ez1021/source/gpaw-setups/gpaw-setups-0.9.20000/N.PBE.gz
    compensation charges: {type: gauss,
                           rc: 0.18,
                           lmax: 2}
    cutoffs: {filter: 1.11,
              core: 0.96}
    valence states:
      #              energy  rcut
      - 2s(2.00)   -18.583   0.603
      - 2p(3.00)    -7.089   0.529
      -  s           8.629   0.603
      -  p          20.123   0.529
      -  d           0.000   0.577
  
    # Using partial waves for N as LCAO basis

  C:
    name: Carbon
    id: 4aa54d4b901d75f77cc0ea3eec22967b
    Z: 6.0
    valence: 4
    core: 2
    charge: 0.0
    file: /home/fr/fr_fr/fr_ez1021/source/gpaw-setups/gpaw-setups-0.9.20000/C.PBE.gz
    compensation charges: {type: gauss,
                           rc: 0.20,
                           lmax: 2}
    cutoffs: {filter: 1.14,
              core: 1.14}
    valence states:
      #              energy  rcut
      - 2s(2.00)   -13.751   0.635
      - 2p(2.00)    -5.284   0.635
      -  s          13.461   0.635
      -  p          21.927   0.635
      -  d           0.000   0.635
  
    # Using partial waves for C as LCAO basis

  O:
    name: Oxygen
    id: 32ecd46bf208036f09c70b0ec9a88b78
    Z: 8.0
    valence: 6
    core: 2
    charge: 0.0
    file: /home/fr/fr_fr/fr_ez1021/source/gpaw-setups/gpaw-setups-0.9.20000/O.PBE.gz
    compensation charges: {type: gauss,
                           rc: 0.21,
                           lmax: 2}
    cutoffs: {filter: 1.17,
              core: 0.83}
    valence states:
      #              energy  rcut
      - 2s(2.00)   -23.961   0.688
      - 2p(4.00)    -9.029   0.598
      -  s           3.251   0.688
      -  p          18.182   0.598
      -  d           0.000   0.619
  
    # Using partial waves for O as LCAO basis

  H:
    name: Hydrogen
    id: d65de229564ff8ea4db303e23b6d1ecf
    Z: 1.0
    valence: 1
    core: 0
    charge: 0.0
    file: /home/fr/fr_fr/fr_ez1021/source/gpaw-setups/gpaw-setups-0.9.20000/H.PBE.gz
    compensation charges: {type: gauss,
                           rc: 0.15,
                           lmax: 2}
    cutoffs: {filter: 0.85,
              core: 0.53}
    valence states:
      #              energy  rcut
      - 1s(1.00)    -6.494   0.476
      -  s          20.717   0.476
      -  p           0.000   0.476
  
    # Using partial waves for H as LCAO basis

Reference energy: -16349.221583  # eV

Spin-paired calculation

Convergence criteria:
 Maximum [total energy] change in last 3 cyles: 0.0005 eV / valence electron
 Maximum integral of absolute [dens]ity change: 0.0001 electrons / valence electron
 Maximum integral of absolute [eigenst]ate change: 4e-08 eV^2 / valence electron
 Maximum number of scf [iter]ations: 333
 (Square brackets indicate name in SCF output, whereas a 'c' in
 the SCF output indicates the quantity has converged.)

Symmetries present (total): 1

  ( 1  0  0)
  ( 0  1  0)
  ( 0  0  1)

1 k-point (Gamma)
1 k-point in the irreducible part of the Brillouin zone
       k-points in crystal coordinates                weights
   0:     0.00000000    0.00000000    0.00000000          1/1

Wave functions: Uniform real-space grid
  Kinetic energy operator: 6*3+1=19 point O(h^6) finite-difference Laplacian
  ScaLapack parameters: grid=1x1, blocksize=None
  Wavefunction extrapolation:
    Improved wavefunction reuse through dual PAW basis 

Occupation numbers: # Zero width 

Eigensolver
   Davidson(niter=2) 

Densities:
  Coarse grid: 84*64*60 grid
  Fine grid: 168*128*120 grid
  Total Charge: 0.000000 

Density mixing:
  Method: separate
  Backend: pulay
  Linear mixing parameter: 0.25
  old densities: 3
  Damping of long wavelength oscillations: 1  # (no daming) 

Hamiltonian:
  XC and Coulomb potentials evaluated on a 168*128*120 grid
  Using the PBE Exchange-Correlation functional
  External potential:
    Constant electric field: (0.000, 0.000, 0.010) V/Ang
  Interpolation: tri-quintic (5. degree polynomial)
  Poisson solver: Jacobi weighted FD solver with dielectric and 4 multi-grid levels
    Coarsest grid: 21 x 16 x 15 points
    Stencil: Weighted Finite Difference Operator
      6*3+1=19 point O(h^6) finite-difference Laplacian
      Finite-difference x-derivative with O(h^6) error (6 points)
      Finite-difference y-derivative with O(h^6) error (6 points)
      Finite-difference z-derivative with O(h^6) error (6 points)
    Max iterations: 1000
    Tolerance: 2.000000e-10

  Solvation:
    Cavity:  EffectivePotentialCavity
      Surface Calculator: GradientSurface with 3 nn
      Volume Calculator: KB51Volume
        compressibility: 72.57860092224
        temperature:     298.15
      EffectivePotentialCavity
        Potential: Power12Potential
          u0: 0.18eV
          pbc_cutoff: 1e-06
          tiny: 1e-10
        temperature: 298.15K    Dielectric:
      Type: LinearDielectric
      Solvent dielectric constant: 1.77    Interaction: SurfaceInteraction
      subscript: surf
      Surface_tension: 0.0011484376791625194 eV/(Angstrom^2)
XC parameters: PBE with 2 nearest neighbor stencil

Memory estimate:
  Process memory now: 262.79 MiB
  Calculator: 55.51 MiB
    Density: 5.25 MiB
      Arrays: 3.76 MiB
      Localized functions: 0.66 MiB
      Mixer: 0.82 MiB
    Hamiltonian: 36.72 MiB
      Arrays: 2.46 MiB
      XC: 0.00 MiB
      Poisson: 2.82 MiB
      vbar: 0.05 MiB
      Solvation: 31.39 MiB
    Wavefunctions: 13.54 MiB
      Arrays psit_nG: 6.31 MiB
      Eigensolver: 7.16 MiB
      Projections: 0.00 MiB
      Projectors: 0.07 MiB

Total number of cores used: 16
Domain decomposition: 4 x 2 x 2

Number of atoms: 26
Number of atomic orbitals: 62
Number of bands in calculation: 46
Number of valence electrons: 70
Bands to converge: occupied

... initialized

Initializing position-dependent things.

Solvation position-dependent initialization:
  Atomic radii for Power12Potential:
    Type    Radius   No. of atoms
       H     1.090     14
       O     1.520     2
       N     1.550     4
       C     1.700     6

Density initialized from atomic densities
Creating initial wave functions:
  46 bands from LCAO basis set

         .----------------------------------------.  
        /|                                        |  
       / |                                        |  
      /  |                                        |  
     /   |                                        |  
    /    |                                        |  
   /     |                                        |  
  /      |                                        |  
 *       |                                        |  
 |       |               H    H     O             |  
 |       |                     H                  |  
 |       |               HC  CH    C              |  
 |       |          HHNC H   N      O             |  
 |       |       H C   H     HH                   |  
 |       |     H H                                |  
 |       .----------------------------------------.  
 |      /                                        /   
 |     /                                        /    
 |    /                                        /     
 |   /                                        /      
 |  /                                        /       
 | /                                        /        
 |/                                        /         
 *----------------------------------------*          

Positions:
   0 N      9.550437    7.592794    5.349712    ( 0.0000,  0.0000,  0.0000)
   1 C     10.367905    7.103779    6.468735    ( 0.0000,  0.0000,  0.0000)
   2 C     11.898278    7.343902    6.311000    ( 0.0000,  0.0000,  0.0000)
   3 O     12.353810    7.573511    5.150609    ( 0.0000,  0.0000,  0.0000)
   4 H      9.622714    8.610804    5.293188    ( 0.0000,  0.0000,  0.0000)
   5 H      9.951771    7.243901    4.473705    ( 0.0000,  0.0000,  0.0000)
   6 H     10.058929    7.651822    7.373702    ( 0.0000,  0.0000,  0.0000)
   7 C     10.121139    5.605410    6.711421    ( 0.0000,  0.0000,  0.0000)
   8 C      8.742700    5.222711    7.274467    ( 0.0000,  0.0000,  0.0000)
   9 C      7.632078    4.939788    6.264043    ( 0.0000,  0.0000,  0.0000)
  10 N      7.174035    6.143700    5.576793    ( 0.0000,  0.0000,  0.0000)
  11 C      5.971948    6.241743    5.020566    ( 0.0000,  0.0000,  0.0000)
  12 N      5.549471    7.422513    4.544965    ( 0.0000,  0.0000,  0.0000)
  13 N      5.148808    5.183018    4.955223    ( 0.0000,  0.0000,  0.0000)
  14 H     10.888995    5.267224    7.420047    ( 0.0000,  0.0000,  0.0000)
  15 H     10.300699    5.057204    5.770514    ( 0.0000,  0.0000,  0.0000)
  16 H      8.407158    5.982746    7.999529    ( 0.0000,  0.0000,  0.0000)
  17 H      8.856752    4.289084    7.843905    ( 0.0000,  0.0000,  0.0000)
  18 H      6.777094    4.501638    6.800662    ( 0.0000,  0.0000,  0.0000)
  19 H      7.985743    4.189196    5.533839    ( 0.0000,  0.0000,  0.0000)
  20 H      7.914151    6.883305    5.424586    ( 0.0000,  0.0000,  0.0000)
  21 H      4.697365    7.484269    4.000471    ( 0.0000,  0.0000,  0.0000)
  22 H      4.211556    5.282393    4.583140    ( 0.0000,  0.0000,  0.0000)
  23 H      5.499992    4.246235    5.105880    ( 0.0000,  0.0000,  0.0000)
  24 O     12.588444    7.267192    7.375603    ( 0.0000,  0.0000,  0.0000)
  25 H      6.103875    8.260618    4.673154    ( 0.0000,  0.0000,  0.0000)

Unit cell:
           periodic     x           y           z      points  spacing
  1. axis:    no    16.800000    0.000000    0.000000    84     0.2000
  2. axis:    no     0.000000   12.800000    0.000000    64     0.2000
  3. axis:    no     0.000000    0.000000   12.000000    60     0.2000

  Lengths:  16.800000  12.800000  12.000000
  Angles:   90.000000  90.000000  90.000000

Effective grid spacing dv^(1/3) = 0.2000

     iter     time        total  log10-change:
                         energy   eigst   dens
iter:   1 21:43:09  -167.428180
iter:   2 21:43:11  -157.137120   +0.66  -0.69
iter:   3 21:43:13  -154.193045   +0.70  -0.90
iter:   4 21:43:14  -153.878291   -0.31  -1.18
iter:   5 21:43:15  -153.840972   -0.59  -1.49
iter:   6 21:43:16  -153.838319   -0.90  -2.12
iter:   7 21:43:17  -153.837316c  -1.65  -2.25
iter:   8 21:43:18  -153.835098c  -1.95  -2.37
iter:   9 21:43:19  -153.833705c  -2.04  -2.69
iter:  10 21:43:19  -153.833646c  -2.84  -2.74
iter:  11 21:43:20  -153.833594c  -3.18  -3.22
iter:  12 21:43:21  -153.833220c  -3.65  -3.42
iter:  13 21:43:21  -153.833567c  -4.02  -3.72
iter:  14 21:43:22  -153.833767c  -4.37  -4.02c
iter:  15 21:43:22  -153.833603c  -4.67  -4.26c
iter:  16 21:43:23  -153.833501c  -4.94  -4.42c
iter:  17 21:43:23  -153.833514c  -5.26  -4.65c
iter:  18 21:43:24  -153.833545c  -5.55  -4.96c
iter:  19 21:43:24  -153.833679c  -5.84  -5.22c
iter:  20 21:43:25  -153.833693c  -6.05  -5.35c
iter:  21 21:43:25  -153.833640c  -6.29  -5.49c
iter:  22 21:43:26  -153.833584c  -6.61  -5.86c
iter:  23 21:43:26  -153.833531c  -6.81  -6.01c
iter:  24 21:43:26  -153.833528c  -7.04  -6.13c
iter:  25 21:43:27  -153.833532c  -7.17  -6.16c
iter:  26 21:43:27  -153.833534c  -7.54c -6.16c

Converged after 26 iterations.

Dipole moment: (-5.297993, -0.976808, -1.078254) |e|*Ang

Energy contributions relative to reference atoms: (reference = -16349.221583)

Kinetic:       +152.542441
Potential:     -168.496018
External:        +0.010783
XC:            -142.487921
Entropy (-ST):   +0.000000
Local:           +4.335442
Interactions  
 surf:           +0.261739
--------------------------
Free energy:   -153.833534
Extrapolated:  -153.833534

Solvation cavity surface area: 227.90881
Solvation cavity volume: 243.44570
 Band  Eigenvalues  Occupancy
    0    -26.50708    2.00000
    1    -24.03562    2.00000
    2    -23.63477    2.00000
    3    -23.54069    2.00000
    4    -21.97337    2.00000
    5    -21.62165    2.00000
    6    -19.84989    2.00000
    7    -18.10338    2.00000
    8    -16.91578    2.00000
    9    -16.11825    2.00000
   10    -15.67166    2.00000
   11    -14.95422    2.00000
   12    -14.15986    2.00000
   13    -13.49798    2.00000
   14    -13.39338    2.00000
   15    -12.49804    2.00000
   16    -12.10388    2.00000
   17    -11.92358    2.00000
   18    -11.57766    2.00000
   19    -11.09366    2.00000
   20    -10.53772    2.00000
   21    -10.17797    2.00000
   22     -9.52280    2.00000
   23     -9.13088    2.00000
   24     -8.71074    2.00000
   25     -8.32977    2.00000
   26     -8.06143    2.00000
   27     -7.93773    2.00000
   28     -7.90498    2.00000
   29     -7.32220    2.00000
   30     -7.06183    2.00000
   31     -6.47364    2.00000
   32     -4.54831    2.00000
   33     -4.17729    2.00000
   34     -3.78953    2.00000
   35     -1.52936    0.00000
   36     -1.41876    0.00000
   37     -0.72838    0.00000
   38     -0.44512    0.00000
   39     -0.14697    0.00000
   40      0.06416    0.00000
   41      0.19659    0.00000
   42      0.46551    0.00000
   43      0.78237    0.00000
   44      0.95300    0.00000
   45      1.11325    0.00000

Fermi level: -2.65945

Gap: 2.260 eV
Transition (v -> c):
  (s=0, k=0, n=34, [0.00, 0.00, 0.00]) -> (s=0, k=0, n=35, [0.00, 0.00, 0.00])
Input parameters:
  external: None

Initialize ...

species:
  N:
    name: Nitrogen
    id: f7500608b86eaa90eef8b1d9a670dc53
    Z: 7.0
    valence: 5
    core: 2
    charge: 0.0
    file: /home/fr/fr_fr/fr_ez1021/source/gpaw-setups/gpaw-setups-0.9.20000/N.PBE.gz
    compensation charges: {type: gauss,
                           rc: 0.18,
                           lmax: 2}
    cutoffs: {filter: 1.11,
              core: 0.96}
    valence states:
      #              energy  rcut
      - 2s(2.00)   -18.583   0.603
      - 2p(3.00)    -7.089   0.529
      -  s           8.629   0.603
      -  p          20.123   0.529
      -  d           0.000   0.577
  
    # Using partial waves for N as LCAO basis

  C:
    name: Carbon
    id: 4aa54d4b901d75f77cc0ea3eec22967b
    Z: 6.0
    valence: 4
    core: 2
    charge: 0.0
    file: /home/fr/fr_fr/fr_ez1021/source/gpaw-setups/gpaw-setups-0.9.20000/C.PBE.gz
    compensation charges: {type: gauss,
                           rc: 0.20,
                           lmax: 2}
    cutoffs: {filter: 1.14,
              core: 1.14}
    valence states:
      #              energy  rcut
      - 2s(2.00)   -13.751   0.635
      - 2p(2.00)    -5.284   0.635
      -  s          13.461   0.635
      -  p          21.927   0.635
      -  d           0.000   0.635
  
    # Using partial waves for C as LCAO basis

  O:
    name: Oxygen
    id: 32ecd46bf208036f09c70b0ec9a88b78
    Z: 8.0
    valence: 6
    core: 2
    charge: 0.0
    file: /home/fr/fr_fr/fr_ez1021/source/gpaw-setups/gpaw-setups-0.9.20000/O.PBE.gz
    compensation charges: {type: gauss,
                           rc: 0.21,
                           lmax: 2}
    cutoffs: {filter: 1.17,
              core: 0.83}
    valence states:
      #              energy  rcut
      - 2s(2.00)   -23.961   0.688
      - 2p(4.00)    -9.029   0.598
      -  s           3.251   0.688
      -  p          18.182   0.598
      -  d           0.000   0.619
  
    # Using partial waves for O as LCAO basis

  H:
    name: Hydrogen
    id: d65de229564ff8ea4db303e23b6d1ecf
    Z: 1.0
    valence: 1
    core: 0
    charge: 0.0
    file: /home/fr/fr_fr/fr_ez1021/source/gpaw-setups/gpaw-setups-0.9.20000/H.PBE.gz
    compensation charges: {type: gauss,
                           rc: 0.15,
                           lmax: 2}
    cutoffs: {filter: 0.85,
              core: 0.53}
    valence states:
      #              energy  rcut
      - 1s(1.00)    -6.494   0.476
      -  s          20.717   0.476
      -  p           0.000   0.476
  
    # Using partial waves for H as LCAO basis

Reference energy: -16349.221583  # eV

Spin-paired calculation

Convergence criteria:
 Maximum [total energy] change in last 3 cyles: 0.0005 eV / valence electron
 Maximum integral of absolute [dens]ity change: 0.0001 electrons / valence electron
 Maximum integral of absolute [eigenst]ate change: 4e-08 eV^2 / valence electron
 Maximum number of scf [iter]ations: 333
 (Square brackets indicate name in SCF output, whereas a 'c' in
 the SCF output indicates the quantity has converged.)

Symmetries present (total): 1

  ( 1  0  0)
  ( 0  1  0)
  ( 0  0  1)

1 k-point (Gamma)
1 k-point in the irreducible part of the Brillouin zone
       k-points in crystal coordinates                weights
   0:     0.00000000    0.00000000    0.00000000          1/1

Wave functions: Uniform real-space grid
  Kinetic energy operator: 6*3+1=19 point O(h^6) finite-difference Laplacian
  ScaLapack parameters: grid=1x1, blocksize=None
  Wavefunction extrapolation:
    Improved wavefunction reuse through dual PAW basis 

Occupation numbers: # Zero width 

Eigensolver
   Davidson(niter=2) 

Densities:
  Coarse grid: 84*64*60 grid
  Fine grid: 168*128*120 grid
  Total Charge: 0.000000 

Density mixing:
  Method: separate
  Backend: pulay
  Linear mixing parameter: 0.25
  old densities: 3
  Damping of long wavelength oscillations: 1  # (no daming) 

Hamiltonian:
  XC and Coulomb potentials evaluated on a 168*128*120 grid
  Using the PBE Exchange-Correlation functional
  Interpolation: tri-quintic (5. degree polynomial)
  Poisson solver: Jacobi weighted FD solver with dielectric and 4 multi-grid levels
    Coarsest grid: 21 x 16 x 15 points
    Stencil: Weighted Finite Difference Operator
      6*3+1=19 point O(h^6) finite-difference Laplacian
      Finite-difference x-derivative with O(h^6) error (6 points)
      Finite-difference y-derivative with O(h^6) error (6 points)
      Finite-difference z-derivative with O(h^6) error (6 points)
    Max iterations: 1000
    Tolerance: 2.000000e-10

  Solvation:
    Cavity:  EffectivePotentialCavity
      Surface Calculator: GradientSurface with 3 nn
      Volume Calculator: KB51Volume
        compressibility: 72.57860092224
        temperature:     298.15
      EffectivePotentialCavity
        Potential: Power12Potential
          u0: 0.18eV
          pbc_cutoff: 1e-06
          tiny: 1e-10
        temperature: 298.15K    Dielectric:
      Type: LinearDielectric
      Solvent dielectric constant: 1.77    Interaction: SurfaceInteraction
      subscript: surf
      Surface_tension: 0.0011484376791625194 eV/(Angstrom^2)
XC parameters: PBE with 2 nearest neighbor stencil

Memory estimate:
  Process memory now: 267.24 MiB
  Calculator: 55.51 MiB
    Density: 5.25 MiB
      Arrays: 3.76 MiB
      Localized functions: 0.66 MiB
      Mixer: 0.82 MiB
    Hamiltonian: 36.72 MiB
      Arrays: 2.46 MiB
      XC: 0.00 MiB
      Poisson: 2.82 MiB
      vbar: 0.05 MiB
      Solvation: 31.39 MiB
    Wavefunctions: 13.54 MiB
      Arrays psit_nG: 6.31 MiB
      Eigensolver: 7.16 MiB
      Projections: 0.00 MiB
      Projectors: 0.07 MiB

Total number of cores used: 16
Domain decomposition: 4 x 2 x 2

Number of atoms: 26
Number of atomic orbitals: 62
Number of bands in calculation: 46
Number of valence electrons: 70
Bands to converge: occupied

... initialized

Initializing position-dependent things.

Solvation position-dependent initialization:
  Atomic radii for Power12Potential:
    Type    Radius   No. of atoms
       H     1.090     14
       O     1.520     2
       N     1.550     4
       C     1.700     6

Density initialized from atomic densities
Creating initial wave functions:
  46 bands from LCAO basis set

         .----------------------------------------.  
        /|                                        |  
       / |                                        |  
      /  |                                        |  
     /   |                                        |  
    /    |                                        |  
   /     |                                        |  
  /      |                                        |  
 *       |                                        |  
 |       |               H    H     O             |  
 |       |                     H                  |  
 |       |               HC  CH    C              |  
 |       |          HHNC H   N      O             |  
 |       |       H C   H     HH                   |  
 |       |     H H                                |  
 |       .----------------------------------------.  
 |      /                                        /   
 |     /                                        /    
 |    /                                        /     
 |   /                                        /      
 |  /                                        /       
 | /                                        /        
 |/                                        /         
 *----------------------------------------*          

Positions:
   0 N      9.550437    7.592794    5.349712    ( 0.0000,  0.0000,  0.0000)
   1 C     10.367905    7.103779    6.468735    ( 0.0000,  0.0000,  0.0000)
   2 C     11.898278    7.343902    6.311000    ( 0.0000,  0.0000,  0.0000)
   3 O     12.353810    7.573511    5.150609    ( 0.0000,  0.0000,  0.0000)
   4 H      9.622714    8.610804    5.293188    ( 0.0000,  0.0000,  0.0000)
   5 H      9.951771    7.243901    4.473705    ( 0.0000,  0.0000,  0.0000)
   6 H     10.058929    7.651822    7.373702    ( 0.0000,  0.0000,  0.0000)
   7 C     10.121139    5.605410    6.711421    ( 0.0000,  0.0000,  0.0000)
   8 C      8.742700    5.222711    7.274467    ( 0.0000,  0.0000,  0.0000)
   9 C      7.632078    4.939788    6.264043    ( 0.0000,  0.0000,  0.0000)
  10 N      7.174035    6.143700    5.576793    ( 0.0000,  0.0000,  0.0000)
  11 C      5.971948    6.241743    5.020566    ( 0.0000,  0.0000,  0.0000)
  12 N      5.549471    7.422513    4.544965    ( 0.0000,  0.0000,  0.0000)
  13 N      5.148808    5.183018    4.955223    ( 0.0000,  0.0000,  0.0000)
  14 H     10.888995    5.267224    7.420047    ( 0.0000,  0.0000,  0.0000)
  15 H     10.300699    5.057204    5.770514    ( 0.0000,  0.0000,  0.0000)
  16 H      8.407158    5.982746    7.999529    ( 0.0000,  0.0000,  0.0000)
  17 H      8.856752    4.289084    7.843905    ( 0.0000,  0.0000,  0.0000)
  18 H      6.777094    4.501638    6.800662    ( 0.0000,  0.0000,  0.0000)
  19 H      7.985743    4.189196    5.533839    ( 0.0000,  0.0000,  0.0000)
  20 H      7.914151    6.883305    5.424586    ( 0.0000,  0.0000,  0.0000)
  21 H      4.697365    7.484269    4.000471    ( 0.0000,  0.0000,  0.0000)
  22 H      4.211556    5.282393    4.583140    ( 0.0000,  0.0000,  0.0000)
  23 H      5.499992    4.246235    5.105880    ( 0.0000,  0.0000,  0.0000)
  24 O     12.588444    7.267192    7.375603    ( 0.0000,  0.0000,  0.0000)
  25 H      6.103875    8.260618    4.673154    ( 0.0000,  0.0000,  0.0000)

Unit cell:
           periodic     x           y           z      points  spacing
  1. axis:    no    16.800000    0.000000    0.000000    84     0.2000
  2. axis:    no     0.000000   12.800000    0.000000    64     0.2000
  3. axis:    no     0.000000    0.000000   12.000000    60     0.2000

  Lengths:  16.800000  12.800000  12.000000
  Angles:   90.000000  90.000000  90.000000

Effective grid spacing dv^(1/3) = 0.2000

     iter     time        total  log10-change:
                         energy   eigst   dens
iter:   1 21:43:31  -167.441620
iter:   2 21:43:32  -157.149076   +0.66  -0.69
iter:   3 21:43:34  -154.203814   +0.70  -0.90
iter:   4 21:43:35  -153.889090   -0.31  -1.18
iter:   5 21:43:37  -153.851807   -0.59  -1.49
iter:   6 21:43:38  -153.849168   -0.90  -2.12
iter:   7 21:43:38  -153.848171c  -1.65  -2.25
iter:   8 21:43:39  -153.845950c  -1.95  -2.37
iter:   9 21:43:40  -153.844562c  -2.04  -2.69
iter:  10 21:43:41  -153.844500c  -2.84  -2.74
iter:  11 21:43:42  -153.844446c  -3.18  -3.22
iter:  12 21:43:42  -153.844204c  -3.64  -3.42
iter:  13 21:43:43  -153.844434c  -4.02  -3.72
iter:  14 21:43:43  -153.844623c  -4.37  -4.02c
iter:  15 21:43:44  -153.844455c  -4.67  -4.26c
iter:  16 21:43:44  -153.844354c  -4.93  -4.42c
iter:  17 21:43:45  -153.844367c  -5.25  -4.65c
iter:  18 21:43:45  -153.844396c  -5.55  -4.97c
iter:  19 21:43:46  -153.844525c  -5.83  -5.23c
iter:  20 21:43:46  -153.844540c  -6.05  -5.35c
iter:  21 21:43:47  -153.844496c  -6.29  -5.50c
iter:  22 21:43:47  -153.844438c  -6.60  -5.86c
iter:  23 21:43:48  -153.844382c  -6.80  -6.01c
iter:  24 21:43:48  -153.844380c  -7.04  -6.13c
iter:  25 21:43:49  -153.844383c  -7.16  -6.16c
iter:  26 21:43:49  -153.844386c  -7.53c -6.16c

Converged after 26 iterations.

Dipole moment: (-5.300149, -0.975529, -1.092024) |e|*Ang

Energy contributions relative to reference atoms: (reference = -16349.221583)

Kinetic:       +152.537554
Potential:     -168.490700
External:        +0.000000
XC:            -142.488438
Entropy (-ST):   +0.000000
Local:           +4.335459
Interactions  
 surf:           +0.261739
--------------------------
Free energy:   -153.844386
Extrapolated:  -153.844386

Solvation cavity surface area: 227.90881
Solvation cavity volume: 243.44570
 Band  Eigenvalues  Occupancy
    0    -26.49925    2.00000
    1    -24.03751    2.00000
    2    -23.62836    2.00000
    3    -23.53216    2.00000
    4    -21.97231    2.00000
    5    -21.62306    2.00000
    6    -19.85268    2.00000
    7    -18.10339    2.00000
    8    -16.91042    2.00000
    9    -16.11743    2.00000
   10    -15.66512    2.00000
   11    -14.94886    2.00000
   12    -14.16243    2.00000
   13    -13.48885    2.00000
   14    -13.38626    2.00000
   15    -12.49523    2.00000
   16    -12.10264    2.00000
   17    -11.92471    2.00000
   18    -11.57445    2.00000
   19    -11.09429    2.00000
   20    -10.53729    2.00000
   21    -10.18233    2.00000
   22     -9.52491    2.00000
   23     -9.13447    2.00000
   24     -8.71512    2.00000
   25     -8.33351    2.00000
   26     -8.06388    2.00000
   27     -7.93250    2.00000
   28     -7.90600    2.00000
   29     -7.32488    2.00000
   30     -7.05741    2.00000
   31     -6.47159    2.00000
   32     -4.55086    2.00000
   33     -4.17762    2.00000
   34     -3.79329    2.00000
   35     -1.52187    0.00000
   36     -1.40559    0.00000
   37     -0.72119    0.00000
   38     -0.43659    0.00000
   39     -0.15076    0.00000
   40      0.06826    0.00000
   41      0.20359    0.00000
   42      0.45962    0.00000
   43      0.77549    0.00000
   44      0.96069    0.00000
   45      1.11564    0.00000

Fermi level: -2.65758

Gap: 2.271 eV
Transition (v -> c):
  (s=0, k=0, n=34, [0.00, 0.00, 0.00]) -> (s=0, k=0, n=35, [0.00, 0.00, 0.00])
Input parameters:
  external: {direction: [1. 0. 0.],
             name: ConstantElectricField,
             strength: 0.01169603524229075}

Initialize ...

species:
  N:
    name: Nitrogen
    id: f7500608b86eaa90eef8b1d9a670dc53
    Z: 7.0
    valence: 5
    core: 2
    charge: 0.0
    file: /home/fr/fr_fr/fr_ez1021/source/gpaw-setups/gpaw-setups-0.9.20000/N.PBE.gz
    compensation charges: {type: gauss,
                           rc: 0.18,
                           lmax: 2}
    cutoffs: {filter: 1.11,
              core: 0.96}
    valence states:
      #              energy  rcut
      - 2s(2.00)   -18.583   0.603
      - 2p(3.00)    -7.089   0.529
      -  s           8.629   0.603
      -  p          20.123   0.529
      -  d           0.000   0.577
  
    # Using partial waves for N as LCAO basis

  C:
    name: Carbon
    id: 4aa54d4b901d75f77cc0ea3eec22967b
    Z: 6.0
    valence: 4
    core: 2
    charge: 0.0
    file: /home/fr/fr_fr/fr_ez1021/source/gpaw-setups/gpaw-setups-0.9.20000/C.PBE.gz
    compensation charges: {type: gauss,
                           rc: 0.20,
                           lmax: 2}
    cutoffs: {filter: 1.14,
              core: 1.14}
    valence states:
      #              energy  rcut
      - 2s(2.00)   -13.751   0.635
      - 2p(2.00)    -5.284   0.635
      -  s          13.461   0.635
      -  p          21.927   0.635
      -  d           0.000   0.635
  
    # Using partial waves for C as LCAO basis

  O:
    name: Oxygen
    id: 32ecd46bf208036f09c70b0ec9a88b78
    Z: 8.0
    valence: 6
    core: 2
    charge: 0.0
    file: /home/fr/fr_fr/fr_ez1021/source/gpaw-setups/gpaw-setups-0.9.20000/O.PBE.gz
    compensation charges: {type: gauss,
                           rc: 0.21,
                           lmax: 2}
    cutoffs: {filter: 1.17,
              core: 0.83}
    valence states:
      #              energy  rcut
      - 2s(2.00)   -23.961   0.688
      - 2p(4.00)    -9.029   0.598
      -  s           3.251   0.688
      -  p          18.182   0.598
      -  d           0.000   0.619
  
    # Using partial waves for O as LCAO basis

  H:
    name: Hydrogen
    id: d65de229564ff8ea4db303e23b6d1ecf
    Z: 1.0
    valence: 1
    core: 0
    charge: 0.0
    file: /home/fr/fr_fr/fr_ez1021/source/gpaw-setups/gpaw-setups-0.9.20000/H.PBE.gz
    compensation charges: {type: gauss,
                           rc: 0.15,
                           lmax: 2}
    cutoffs: {filter: 0.85,
              core: 0.53}
    valence states:
      #              energy  rcut
      - 1s(1.00)    -6.494   0.476
      -  s          20.717   0.476
      -  p           0.000   0.476
  
    # Using partial waves for H as LCAO basis

Reference energy: -16349.221583  # eV

Spin-paired calculation

Convergence criteria:
 Maximum [total energy] change in last 3 cyles: 0.0005 eV / valence electron
 Maximum integral of absolute [dens]ity change: 0.0001 electrons / valence electron
 Maximum integral of absolute [eigenst]ate change: 4e-08 eV^2 / valence electron
 Maximum number of scf [iter]ations: 333
 (Square brackets indicate name in SCF output, whereas a 'c' in
 the SCF output indicates the quantity has converged.)

Symmetries present (total): 1

  ( 1  0  0)
  ( 0  1  0)
  ( 0  0  1)

1 k-point (Gamma)
1 k-point in the irreducible part of the Brillouin zone
       k-points in crystal coordinates                weights
   0:     0.00000000    0.00000000    0.00000000          1/1

Wave functions: Uniform real-space grid
  Kinetic energy operator: 6*3+1=19 point O(h^6) finite-difference Laplacian
  ScaLapack parameters: grid=1x1, blocksize=None
  Wavefunction extrapolation:
    Improved wavefunction reuse through dual PAW basis 

Occupation numbers: # Zero width 

Eigensolver
   Davidson(niter=2) 

Densities:
  Coarse grid: 84*64*60 grid
  Fine grid: 168*128*120 grid
  Total Charge: 0.000000 

Density mixing:
  Method: separate
  Backend: pulay
  Linear mixing parameter: 0.25
  old densities: 3
  Damping of long wavelength oscillations: 1  # (no daming) 

Hamiltonian:
  XC and Coulomb potentials evaluated on a 168*128*120 grid
  Using the PBE Exchange-Correlation functional
  External potential:
    Constant electric field: (0.012, 0.000, 0.000) V/Ang
  Interpolation: tri-quintic (5. degree polynomial)
  Poisson solver: Jacobi weighted FD solver with dielectric and 4 multi-grid levels
    Coarsest grid: 21 x 16 x 15 points
    Stencil: Weighted Finite Difference Operator
      6*3+1=19 point O(h^6) finite-difference Laplacian
      Finite-difference x-derivative with O(h^6) error (6 points)
      Finite-difference y-derivative with O(h^6) error (6 points)
      Finite-difference z-derivative with O(h^6) error (6 points)
    Max iterations: 1000
    Tolerance: 2.000000e-10

  Solvation:
    Cavity:  EffectivePotentialCavity
      Surface Calculator: GradientSurface with 3 nn
      Volume Calculator: KB51Volume
        compressibility: 72.57860092224
        temperature:     298.15
      EffectivePotentialCavity
        Potential: Power12Potential
          u0: 0.18eV
          pbc_cutoff: 1e-06
          tiny: 1e-10
        temperature: 298.15K    Dielectric:
      Type: LinearDielectric
      Solvent dielectric constant: 1.77    Interaction: SurfaceInteraction
      subscript: surf
      Surface_tension: 0.0011484376791625194 eV/(Angstrom^2)
XC parameters: PBE with 2 nearest neighbor stencil

Memory estimate:
  Process memory now: 268.82 MiB
  Calculator: 55.51 MiB
    Density: 5.25 MiB
      Arrays: 3.76 MiB
      Localized functions: 0.66 MiB
      Mixer: 0.82 MiB
    Hamiltonian: 36.72 MiB
      Arrays: 2.46 MiB
      XC: 0.00 MiB
      Poisson: 2.82 MiB
      vbar: 0.05 MiB
      Solvation: 31.39 MiB
    Wavefunctions: 13.54 MiB
      Arrays psit_nG: 6.31 MiB
      Eigensolver: 7.16 MiB
      Projections: 0.00 MiB
      Projectors: 0.07 MiB

Total number of cores used: 16
Domain decomposition: 4 x 2 x 2

Number of atoms: 26
Number of atomic orbitals: 62
Number of bands in calculation: 46
Number of valence electrons: 70
Bands to converge: occupied

... initialized

Initializing position-dependent things.

Solvation position-dependent initialization:
  Atomic radii for Power12Potential:
    Type    Radius   No. of atoms
       H     1.090     14
       O     1.520     2
       N     1.550     4
       C     1.700     6

Density initialized from atomic densities
Creating initial wave functions:
  46 bands from LCAO basis set

         .----------------------------------------.  
        /|                                        |  
       / |                                        |  
      /  |                                        |  
     /   |                                        |  
    /    |                                        |  
   /     |                                        |  
  /      |                                        |  
 *       |                                        |  
 |       |               H    H     O             |  
 |       |                     H                  |  
 |       |               HC  CH    C              |  
 |       |          HHNC H   N      O             |  
 |       |       H C   H     HH                   |  
 |       |     H H                                |  
 |       .----------------------------------------.  
 |      /                                        /   
 |     /                                        /    
 |    /                                        /     
 |   /                                        /      
 |  /                                        /       
 | /                                        /        
 |/                                        /         
 *----------------------------------------*          

Positions:
   0 N      9.550437    7.592794    5.349712    ( 0.0000,  0.0000,  0.0000)
   1 C     10.367905    7.103779    6.468735    ( 0.0000,  0.0000,  0.0000)
   2 C     11.898278    7.343902    6.311000    ( 0.0000,  0.0000,  0.0000)
   3 O     12.353810    7.573511    5.150609    ( 0.0000,  0.0000,  0.0000)
   4 H      9.622714    8.610804    5.293188    ( 0.0000,  0.0000,  0.0000)
   5 H      9.951771    7.243901    4.473705    ( 0.0000,  0.0000,  0.0000)
   6 H     10.058929    7.651822    7.373702    ( 0.0000,  0.0000,  0.0000)
   7 C     10.121139    5.605410    6.711421    ( 0.0000,  0.0000,  0.0000)
   8 C      8.742700    5.222711    7.274467    ( 0.0000,  0.0000,  0.0000)
   9 C      7.632078    4.939788    6.264043    ( 0.0000,  0.0000,  0.0000)
  10 N      7.174035    6.143700    5.576793    ( 0.0000,  0.0000,  0.0000)
  11 C      5.971948    6.241743    5.020566    ( 0.0000,  0.0000,  0.0000)
  12 N      5.549471    7.422513    4.544965    ( 0.0000,  0.0000,  0.0000)
  13 N      5.148808    5.183018    4.955223    ( 0.0000,  0.0000,  0.0000)
  14 H     10.888995    5.267224    7.420047    ( 0.0000,  0.0000,  0.0000)
  15 H     10.300699    5.057204    5.770514    ( 0.0000,  0.0000,  0.0000)
  16 H      8.407158    5.982746    7.999529    ( 0.0000,  0.0000,  0.0000)
  17 H      8.856752    4.289084    7.843905    ( 0.0000,  0.0000,  0.0000)
  18 H      6.777094    4.501638    6.800662    ( 0.0000,  0.0000,  0.0000)
  19 H      7.985743    4.189196    5.533839    ( 0.0000,  0.0000,  0.0000)
  20 H      7.914151    6.883305    5.424586    ( 0.0000,  0.0000,  0.0000)
  21 H      4.697365    7.484269    4.000471    ( 0.0000,  0.0000,  0.0000)
  22 H      4.211556    5.282393    4.583140    ( 0.0000,  0.0000,  0.0000)
  23 H      5.499992    4.246235    5.105880    ( 0.0000,  0.0000,  0.0000)
  24 O     12.588444    7.267192    7.375603    ( 0.0000,  0.0000,  0.0000)
  25 H      6.103875    8.260618    4.673154    ( 0.0000,  0.0000,  0.0000)

Unit cell:
           periodic     x           y           z      points  spacing
  1. axis:    no    16.800000    0.000000    0.000000    84     0.2000
  2. axis:    no     0.000000   12.800000    0.000000    64     0.2000
  3. axis:    no     0.000000    0.000000   12.000000    60     0.2000

  Lengths:  16.800000  12.800000  12.000000
  Angles:   90.000000  90.000000  90.000000

Effective grid spacing dv^(1/3) = 0.2000

     iter     time        total  log10-change:
                         energy   eigst   dens
iter:   1 21:43:52  -167.369654
iter:   2 21:43:54  -157.083337   +0.66  -0.69
iter:   3 21:43:56  -154.141461   +0.70  -0.90
iter:   4 21:43:57  -153.827261   -0.32  -1.18
iter:   5 21:43:59  -153.790008   -0.59  -1.49
iter:   6 21:43:59  -153.787288   -0.90  -2.12
iter:   7 21:44:00  -153.786286c  -1.65  -2.25
iter:   8 21:44:01  -153.784079c  -1.95  -2.37
iter:   9 21:44:02  -153.782693c  -2.04  -2.69
iter:  10 21:44:03  -153.782631c  -2.84  -2.74
iter:  11 21:44:03  -153.782581c  -3.18  -3.22
iter:  12 21:44:04  -153.782209c  -3.64  -3.42
iter:  13 21:44:05  -153.782556c  -4.02  -3.72
iter:  14 21:44:05  -153.782755c  -4.37  -4.02c
iter:  15 21:44:06  -153.782591c  -4.67  -4.26c
iter:  16 21:44:06  -153.782489c  -4.93  -4.42c
[...]
iter:  14 21:54:37  -153.830750c  -4.37  -4.02c
iter:  15 21:54:38  -153.830584c  -4.67  -4.26c
iter:  16 21:54:38  -153.830482c  -4.93  -4.42c
iter:  17 21:54:39  -153.830498c  -5.25  -4.65c
iter:  18 21:54:39  -153.830528c  -5.54  -4.96c
iter:  19 21:54:40  -153.830661c  -5.83  -5.22c
iter:  20 21:54:40  -153.830675c  -6.05  -5.34c
iter:  21 21:54:40  -153.830625c  -6.28  -5.49c
iter:  22 21:54:41  -153.830568c  -6.60  -5.86c
iter:  23 21:54:41  -153.830514c  -6.79  -6.02c
iter:  24 21:54:42  -153.830511c  -7.04  -6.13c
iter:  25 21:54:42  -153.830516c  -7.16  -6.16c
iter:  26 21:54:43  -153.830516c  -7.51c -6.15c

Converged after 26 iterations.

Dipole moment: (-5.298578, -0.955946, -1.093862) |e|*Ang

Energy contributions relative to reference atoms: (reference = -16349.221583)

Kinetic:       +152.532798
Potential:     -168.487579
External:        +0.013727
XC:            -142.486643
Entropy (-ST):   +0.000000
Local:           +4.335441
Interactions  
 surf:           +0.261739
--------------------------
Free energy:   -153.830516
Extrapolated:  -153.830516

Solvation cavity surface area: 227.90881
Solvation cavity volume: 243.44570
 Band  Eigenvalues  Occupancy
    0    -26.50268    2.00000
    1    -24.02613    2.00000
    2    -23.63001    2.00000
    3    -23.53764    2.00000
    4    -21.96195    2.00000
    5    -21.61177    2.00000
    6    -19.86201    2.00000
    7    -18.10716    2.00000
    8    -16.91435    2.00000
    9    -16.12099    2.00000
   10    -15.66948    2.00000
   11    -14.94943    2.00000
   12    -14.16698    2.00000
   13    -13.49236    2.00000
   14    -13.38894    2.00000
   15    -12.50340    2.00000
   16    -12.09569    2.00000
   17    -11.91844    2.00000
   18    -11.57873    2.00000
   19    -11.10107    2.00000
   20    -10.54239    2.00000
   21    -10.18832    2.00000
   22     -9.51970    2.00000
   23     -9.13364    2.00000
   24     -8.71491    2.00000
   25     -8.33571    2.00000
   26     -8.06760    2.00000
   27     -7.93480    2.00000
   28     -7.90033    2.00000
   29     -7.31814    2.00000
   30     -7.06201    2.00000
   31     -6.46223    2.00000
   32     -4.53905    2.00000
   33     -4.16638    2.00000
   34     -3.78196    2.00000
   35     -1.52473    0.00000
   36     -1.40828    0.00000
   37     -0.72956    0.00000
   38     -0.43437    0.00000
   39     -0.16113    0.00000
   40      0.05349    0.00000
   41      0.21513    0.00000
   42      0.44196    0.00000
   43      0.77365    0.00000
   44      0.94880    0.00000
   45      1.12297    0.00000

Fermi level: -2.65334

Gap: 2.257 eV
Transition (v -> c):
  (s=0, k=0, n=34, [0.00, 0.00, 0.00]) -> (s=0, k=0, n=35, [0.00, 0.00, 0.00])
Input parameters:
  external: {direction: [0. 0. 1.],
             name: ConstantElectricField,
             strength: 0.014359874833758786}

Initialize ...

species:
  N:
    name: Nitrogen
    id: f7500608b86eaa90eef8b1d9a670dc53
    Z: 7.0
    valence: 5
    core: 2
    charge: 0.0
    file: /home/fr/fr_fr/fr_ez1021/source/gpaw-setups/gpaw-setups-0.9.20000/N.PBE.gz
    compensation charges: {type: gauss,
                           rc: 0.18,
                           lmax: 2}
    cutoffs: {filter: 1.11,
              core: 0.96}
    valence states:
      #              energy  rcut
      - 2s(2.00)   -18.583   0.603
      - 2p(3.00)    -7.089   0.529
      -  s           8.629   0.603
      -  p          20.123   0.529
      -  d           0.000   0.577
  
    # Using partial waves for N as LCAO basis

  C:
    name: Carbon
    id: 4aa54d4b901d75f77cc0ea3eec22967b
    Z: 6.0
    valence: 4
    core: 2
    charge: 0.0
    file: /home/fr/fr_fr/fr_ez1021/source/gpaw-setups/gpaw-setups-0.9.20000/C.PBE.gz
    compensation charges: {type: gauss,
                           rc: 0.20,
                           lmax: 2}
    cutoffs: {filter: 1.14,
              core: 1.14}
    valence states:
      #              energy  rcut
      - 2s(2.00)   -13.751   0.635
      - 2p(2.00)    -5.284   0.635
      -  s          13.461   0.635
      -  p          21.927   0.635
      -  d           0.000   0.635
  
    # Using partial waves for C as LCAO basis

  O:
    name: Oxygen
    id: 32ecd46bf208036f09c70b0ec9a88b78
    Z: 8.0
    valence: 6
    core: 2
    charge: 0.0
    file: /home/fr/fr_fr/fr_ez1021/source/gpaw-setups/gpaw-setups-0.9.20000/O.PBE.gz
    compensation charges: {type: gauss,
                           rc: 0.21,
                           lmax: 2}
    cutoffs: {filter: 1.17,
              core: 0.83}
    valence states:
      #              energy  rcut
      - 2s(2.00)   -23.961   0.688
      - 2p(4.00)    -9.029   0.598
      -  s           3.251   0.688
      -  p          18.182   0.598
      -  d           0.000   0.619
  
    # Using partial waves for O as LCAO basis

  H:
    name: Hydrogen
    id: d65de229564ff8ea4db303e23b6d1ecf
    Z: 1.0
    valence: 1
    core: 0
    charge: 0.0
    file: /home/fr/fr_fr/fr_ez1021/source/gpaw-setups/gpaw-setups-0.9.20000/H.PBE.gz
    compensation charges: {type: gauss,
                           rc: 0.15,
                           lmax: 2}
    cutoffs: {filter: 0.85,
              core: 0.53}
    valence states:
      #              energy  rcut
      - 1s(1.00)    -6.494   0.476
      -  s          20.717   0.476
      -  p           0.000   0.476
  
    # Using partial waves for H as LCAO basis

Reference energy: -16349.221583  # eV

Spin-paired calculation

Convergence criteria:
 Maximum [total energy] change in last 3 cyles: 0.0005 eV / valence electron
 Maximum integral of absolute [dens]ity change: 0.0001 electrons / valence electron
 Maximum integral of absolute [eigenst]ate change: 4e-08 eV^2 / valence electron
 Maximum number of scf [iter]ations: 333
 (Square brackets indicate name in SCF output, whereas a 'c' in
 the SCF output indicates the quantity has converged.)

Symmetries present (total): 1

  ( 1  0  0)
  ( 0  1  0)
  ( 0  0  1)

1 k-point (Gamma)
1 k-point in the irreducible part of the Brillouin zone
       k-points in crystal coordinates                weights
   0:     0.00000000    0.00000000    0.00000000          1/1

Wave functions: Uniform real-space grid
  Kinetic energy operator: 6*3+1=19 point O(h^6) finite-difference Laplacian
  ScaLapack parameters: grid=1x1, blocksize=None
  Wavefunction extrapolation:
    Improved wavefunction reuse through dual PAW basis 

Occupation numbers: # Zero width 

Eigensolver
   Davidson(niter=2) 

Densities:
  Coarse grid: 84*64*60 grid
  Fine grid: 168*128*120 grid
  Total Charge: 0.000000 

Density mixing:
  Method: separate
  Backend: pulay
  Linear mixing parameter: 0.25
  old densities: 3
  Damping of long wavelength oscillations: 1  # (no daming) 

Hamiltonian:
  XC and Coulomb potentials evaluated on a 168*128*120 grid
  Using the PBE Exchange-Correlation functional
  External potential:
    Constant electric field: (0.000, 0.000, 0.014) V/Ang
  Interpolation: tri-quintic (5. degree polynomial)
  Poisson solver: Jacobi weighted FD solver with dielectric and 4 multi-grid levels
    Coarsest grid: 21 x 16 x 15 points
    Stencil: Weighted Finite Difference Operator
      6*3+1=19 point O(h^6) finite-difference Laplacian
      Finite-difference x-derivative with O(h^6) error (6 points)
      Finite-difference y-derivative with O(h^6) error (6 points)
      Finite-difference z-derivative with O(h^6) error (6 points)
    Max iterations: 1000
    Tolerance: 2.000000e-10

  Solvation:
    Cavity:  EffectivePotentialCavity
      Surface Calculator: GradientSurface with 3 nn
      Volume Calculator: KB51Volume
        compressibility: 72.57860092224
        temperature:     298.15
      EffectivePotentialCavity
        Potential: Power12Potential
          u0: 0.18eV
          pbc_cutoff: 1e-06
          tiny: 1e-10
        temperature: 298.15K    Dielectric:
      Type: LinearDielectric
      Solvent dielectric constant: 1.77    Interaction: SurfaceInteraction
      subscript: surf
      Surface_tension: 0.0011484376791625194 eV/(Angstrom^2)
XC parameters: PBE with 2 nearest neighbor stencil

Memory estimate:
  Process memory now: 297.98 MiB
  Calculator: 55.51 MiB
    Density: 5.25 MiB
      Arrays: 3.76 MiB
      Localized functions: 0.66 MiB
      Mixer: 0.82 MiB
    Hamiltonian: 36.72 MiB
      Arrays: 2.46 MiB
      XC: 0.00 MiB
      Poisson: 2.82 MiB
      vbar: 0.05 MiB
      Solvation: 31.39 MiB
    Wavefunctions: 13.54 MiB
      Arrays psit_nG: 6.31 MiB
      Eigensolver: 7.16 MiB
      Projections: 0.00 MiB
      Projectors: 0.07 MiB

Total number of cores used: 16
Domain decomposition: 4 x 2 x 2

Number of atoms: 26
Number of atomic orbitals: 62
Number of bands in calculation: 46
Number of valence electrons: 70
Bands to converge: occupied

... initialized

Initializing position-dependent things.

Solvation position-dependent initialization:
  Atomic radii for Power12Potential:
    Type    Radius   No. of atoms
       H     1.090     14
       O     1.520     2
       N     1.550     4
       C     1.700     6

Density initialized from atomic densities
Creating initial wave functions:
  46 bands from LCAO basis set

         .----------------------------------------.  
        /|                                        |  
       / |                                        |  
      /  |                                        |  
     /   |                                        |  
    /    |                                        |  
   /     |                                        |  
  /      |                                        |  
 *       |                                        |  
 |       |               H    H     O             |  
 |       |                     H                  |  
 |       |               HC  CH    C              |  
 |       |          HHNC H   N      O             |  
 |       |       H C   H     HH                   |  
 |       |     H H                                |  
 |       .----------------------------------------.  
 |      /                                        /   
 |     /                                        /    
 |    /                                        /     
 |   /                                        /      
 |  /                                        /       
 | /                                        /        
 |/                                        /         
 *----------------------------------------*          

Positions:
   0 N      9.550437    7.592794    5.349712    ( 0.0000,  0.0000,  0.0000)
   1 C     10.367905    7.103779    6.468735    ( 0.0000,  0.0000,  0.0000)
   2 C     11.898278    7.343902    6.311000    ( 0.0000,  0.0000,  0.0000)
   3 O     12.353810    7.573511    5.150609    ( 0.0000,  0.0000,  0.0000)
   4 H      9.622714    8.610804    5.293188    ( 0.0000,  0.0000,  0.0000)
   5 H      9.951771    7.243901    4.473705    ( 0.0000,  0.0000,  0.0000)
   6 H     10.058929    7.651822    7.373702    ( 0.0000,  0.0000,  0.0000)
   7 C     10.121139    5.605410    6.711421    ( 0.0000,  0.0000,  0.0000)
   8 C      8.742700    5.222711    7.274467    ( 0.0000,  0.0000,  0.0000)
   9 C      7.632078    4.939788    6.264043    ( 0.0000,  0.0000,  0.0000)
  10 N      7.174035    6.143700    5.576793    ( 0.0000,  0.0000,  0.0000)
  11 C      5.971948    6.241743    5.020566    ( 0.0000,  0.0000,  0.0000)
  12 N      5.549471    7.422513    4.544965    ( 0.0000,  0.0000,  0.0000)
  13 N      5.148808    5.183018    4.955223    ( 0.0000,  0.0000,  0.0000)
  14 H     10.888995    5.267224    7.420047    ( 0.0000,  0.0000,  0.0000)
  15 H     10.300699    5.057204    5.770514    ( 0.0000,  0.0000,  0.0000)
  16 H      8.407158    5.982746    7.999529    ( 0.0000,  0.0000,  0.0000)
  17 H      8.856752    4.289084    7.843905    ( 0.0000,  0.0000,  0.0000)
  18 H      6.777094    4.501638    6.800662    ( 0.0000,  0.0000,  0.0000)
  19 H      7.985743    4.189196    5.533839    ( 0.0000,  0.0000,  0.0000)
  20 H      7.914151    6.883305    5.424586    ( 0.0000,  0.0000,  0.0000)
  21 H      4.697365    7.484269    4.000471    ( 0.0000,  0.0000,  0.0000)
  22 H      4.211556    5.282393    4.583140    ( 0.0000,  0.0000,  0.0000)
  23 H      5.499992    4.246235    5.105880    ( 0.0000,  0.0000,  0.0000)
  24 O     12.588444    7.267192    7.375603    ( 0.0000,  0.0000,  0.0000)
  25 H      6.103875    8.260618    4.673154    ( 0.0000,  0.0000,  0.0000)

Unit cell:
           periodic     x           y           z      points  spacing
  1. axis:    no    16.800000    0.000000    0.000000    84     0.2000
  2. axis:    no     0.000000   12.800000    0.000000    64     0.2000
  3. axis:    no     0.000000    0.000000   12.000000    60     0.2000

  Lengths:  16.800000  12.800000  12.000000
  Angles:   90.000000  90.000000  90.000000

Effective grid spacing dv^(1/3) = 0.2000

     iter     time        total  log10-change:
                         energy   eigst   dens
iter:   1 21:54:46  -167.422364
iter:   2 21:54:48  -157.131949   +0.66  -0.69
iter:   3 21:54:50  -154.188390   +0.70  -0.90
iter:   4 21:54:51  -153.873625   -0.31  -1.18
iter:   5 21:54:52  -153.836291   -0.59  -1.49
iter:   6 21:54:53  -153.833632   -0.90  -2.12
iter:   7 21:54:54  -153.832627c  -1.65  -2.25
iter:   8 21:54:55  -153.830410c  -1.95  -2.37
iter:   9 21:54:56  -153.829015c  -2.04  -2.69
iter:  10 21:54:56  -153.828957c  -2.84  -2.74
iter:  11 21:54:57  -153.828905c  -3.18  -3.22
iter:  12 21:54:58  -153.828533c  -3.65  -3.42
iter:  13 21:54:58  -153.828879c  -4.02  -3.72
iter:  14 21:54:59  -153.829078c  -4.38  -4.02c
iter:  15 21:54:59  -153.828916c  -4.68  -4.26c
iter:  16 21:55:00  -153.828813c  -4.94  -4.42c
iter:  17 21:55:00  -153.828825c  -5.26  -4.65c
iter:  18 21:55:01  -153.828857c  -5.55  -4.97c
iter:  19 21:55:01  -153.828992c  -5.84  -5.22c
iter:  20 21:55:02  -153.829006c  -6.06  -5.35c
iter:  21 21:55:02  -153.828952c  -6.30  -5.49c
iter:  22 21:55:03  -153.828895c  -6.61  -5.86c
iter:  23 21:55:03  -153.828843c  -6.81  -6.01c
iter:  24 21:55:04  -153.828840c  -7.04  -6.13c
iter:  25 21:55:04  -153.828844c  -7.17  -6.16c
iter:  26 21:55:05  -153.828846c  -7.55c -6.16c

Converged after 26 iterations.

Dipole moment: (-5.297050, -0.977366, -1.072249) |e|*Ang

Energy contributions relative to reference atoms: (reference = -16349.221583)

Kinetic:       +152.544521
Potential:     -168.498282
External:        +0.015397
XC:            -142.487657
Entropy (-ST):   +0.000000
Local:           +4.335435
Interactions  
 surf:           +0.261739
--------------------------
Free energy:   -153.828846
Extrapolated:  -153.828846

Solvation cavity surface area: 227.90881
Solvation cavity volume: 243.44570
 Band  Eigenvalues  Occupancy
    0    -26.51051    2.00000
    1    -24.03481    2.00000
    2    -23.63758    2.00000
    3    -23.54439    2.00000
    4    -21.97384    2.00000
    5    -21.62103    2.00000
    6    -19.84869    2.00000
    7    -18.10339    2.00000
    8    -16.91812    2.00000
    9    -16.11863    2.00000
   10    -15.67451    2.00000
   11    -14.95656    2.00000
   12    -14.15873    2.00000
   13    -13.50196    2.00000
   14    -13.39649    2.00000
   15    -12.49928    2.00000
   16    -12.10443    2.00000
   17    -11.92309    2.00000
   18    -11.57907    2.00000
   19    -11.09339    2.00000
   20    -10.53791    2.00000
   21    -10.17607    2.00000
   22     -9.52190    2.00000
   23     -9.12933    2.00000
   24     -8.70884    2.00000
   25     -8.32814    2.00000
   26     -8.06053    2.00000
   27     -7.94006    2.00000
   28     -7.90434    2.00000
   29     -7.32104    2.00000
   30     -7.06375    2.00000
   31     -6.47454    2.00000
   32     -4.54721    2.00000
   33     -4.17717    2.00000
   34     -3.78789    2.00000
   35     -1.53269    0.00000
   36     -1.42454    0.00000
   37     -0.73162    0.00000
   38     -0.44917    0.00000
   39     -0.14526    0.00000
   40      0.06237    0.00000
   41      0.19337    0.00000
   42      0.46819    0.00000
   43      0.78550    0.00000
   44      0.94930    0.00000
   45      1.11239    0.00000

Fermi level: -2.66029

Gap: 2.255 eV
Transition (v -> c):
  (s=0, k=0, n=34, [0.00, 0.00, 0.00]) -> (s=0, k=0, n=35, [0.00, 0.00, 0.00])
Input parameters:
  external: None

Timing:                              incl.     excl.
-----------------------------------------------------------
Hamiltonian:                        92.040    19.171   2.4% ||
 Atomic:                             1.244     0.023   0.0% |
  XC Correction:                     1.220     1.220   0.2% |
 Hartree integrate/restrict:         0.128     0.128   0.0% |
 Initialize Hamiltonian:             1.277     1.277   0.2% |
 Poisson:                           68.589    68.589   8.8% |---|
 XC 3D grid:                         1.592     1.592   0.2% |
 vbar:                               0.040     0.040   0.0% |
LCAO initialization:                11.126     7.749   1.0% |
 LCAO eigensolver:                   1.024     0.003   0.0% |
  Calculate projections:             0.001     0.001   0.0% |
  DenseAtomicCorrection:             0.001     0.001   0.0% |
  Distribute overlap matrix:         0.874     0.874   0.1% |
  Orbital Layouts:                   0.038     0.038   0.0% |
  Potential matrix:                  0.106     0.106   0.0% |
 LCAO to grid:                       0.704     0.704   0.1% |
 Set positions (LCAO WFS):           1.649     1.191   0.2% |
  Basic WFS set positions:           0.030     0.030   0.0% |
  Basis functions set positions:     0.005     0.005   0.0% |
  P tci:                             0.011     0.011   0.0% |
  ST tci:                            0.145     0.145   0.0% |
  mktci:                             0.268     0.268   0.0% |
SCF-cycle:                         672.000     0.761   0.1% |
 Davidson:                         248.833    85.648  10.9% |---|
  Apply hamiltonian:                21.480    21.480   2.7% ||
  Subspace diag:                    36.940     0.120   0.0% |
   calc_h_matrix:                   24.479     4.698   0.6% |
    Apply hamiltonian:              19.781    19.781   2.5% ||
   diagonalize:                      2.247     2.247   0.3% |
   rotate_psi:                      10.094    10.094   1.3% ||
  calc. matrices:                   82.049    33.524   4.3% |-|
   Apply hamiltonian:               48.525    48.525   6.2% |-|
  diagonalize:                       2.564     2.564   0.3% |
  rotate_psi:                       20.151    20.151   2.6% ||
 Density:                            7.478     0.021   0.0% |
  Atomic density matrices:           1.499     1.499   0.2% |
  Mix:                               4.493     4.493   0.6% |
  Multipole moments:                 0.187     0.187   0.0% |
  Pseudo density:                    1.279     1.262   0.2% |
   Symmetrize density:               0.016     0.016   0.0% |
 Hamiltonian:                      412.240    32.970   4.2% |-|
  Atomic:                           30.925     0.618   0.1% |
   XC Correction:                   30.308    30.308   3.9% |-|
  Hartree integrate/restrict:        2.859     2.859   0.4% |
  Poisson:                         302.470   302.470  38.6% |--------------|
  XC 3D grid:                       42.439    42.439   5.4% |-|
  vbar:                              0.577     0.577   0.1% |
 Orthonormalize:                     2.689     0.005   0.0% |
  calc_s_matrix:                     0.101     0.101   0.0% |
  inverse-cholesky:                  2.311     2.311   0.3% |
  projections:                       0.008     0.008   0.0% |
  rotate_psi_s:                      0.263     0.263   0.0% |
Set symmetry:                        0.033     0.033   0.0% |
Other:                               8.664     8.664   1.1% |
-----------------------------------------------------------
Total:                                       783.863 100.0%

Memory usage: 297.98 MiB
Date: Fri Oct  6 21:55:05 2023
