
  ___ ___ ___ _ _ _  
 |   |   |_  | | | | 
 | | | | | . | | | | 
 |__ |  _|___|_____|  23.9.2b1
 |___|_|             

User:   fr_ez1021@n0206
Date:   Fri Oct  6 21:40:27 2023
Arch:   x86_64
Pid:    1485551
CWD:    /lustre/home/fr/fr_fr/fr_ez1021/sims/amino_acids_publish/scripts
Python: 3.8.3
gpaw:   /home/fr/fr_fr/fr_ez1021/source/origin/gpaw/gpaw (68657f1768)
_gpaw:  /home/fr/fr_fr/fr_ez1021/source/origin/gpaw/build/lib.linux-x86_64-3.8/
        _gpaw.cpython-38-x86_64-linux-gnu.so (d6c5f22bb1)
ase:    /home/fr/fr_fr/fr_ez1021/source/origin/ase/ase (version 3.23.0b1-4bd916e410)
numpy:  /opt/bwhpc/common/numlib/python_numpy/1.19.0_python-3.8.3/lib/python3.8/site-packages/numpy-1.19.0-py3.8-linux-x86_64.egg/numpy (version 1.19.0)
scipy:  /opt/bwhpc/common/numlib/python_scipy/1.5.0_numpy-1.19.0_python-3.8.3/lib/python3.8/site-packages/scipy-1.5.0-py3.8-linux-x86_64.egg/scipy (version 1.5.0)
libxc:  5.1.7
units:  Angstrom and eV
cores: 16
OpenMP: False
OMP_NUM_THREADS: 1

Input parameters:
  mode: fd
  xc: PBE

Implicit solvation parameters:
Cavity:  EffectivePotentialCavity
  Surface Calculator: GradientSurface with 3 nn
  Volume Calculator: KB51Volume
    compressibility: 72.57860092224
    temperature:     298.15
  EffectivePotentialCavity
    Potential: Power12Potential
      u0: 0.18eV
      pbc_cutoff: 1e-06
      tiny: 1e-10
    temperature: 298.15K
Dielectric:
  Type: LinearDielectric
  Solvent dielectric constant: 1.77
Interaction: SurfaceInteraction
  subscript: surf
  Surface_tension: 0.0011484376791625194 eV/(Angstrom^2)

System changes: positions, numbers, cell, pbc, initial_charges, initial_magmoms 

Initialize ...

species:
  N:
    name: Nitrogen
    id: f7500608b86eaa90eef8b1d9a670dc53
    Z: 7.0
    valence: 5
    core: 2
    charge: 0.0
    file: /home/fr/fr_fr/fr_ez1021/source/gpaw-setups/gpaw-setups-0.9.20000/N.PBE.gz
    compensation charges: {type: gauss,
                           rc: 0.18,
                           lmax: 2}
    cutoffs: {filter: 1.11,
              core: 0.96}
    valence states:
      #              energy  rcut
      - 2s(2.00)   -18.583   0.603
      - 2p(3.00)    -7.089   0.529
      -  s           8.629   0.603
      -  p          20.123   0.529
      -  d           0.000   0.577
  
    # Using partial waves for N as LCAO basis

  C:
    name: Carbon
    id: 4aa54d4b901d75f77cc0ea3eec22967b
    Z: 6.0
    valence: 4
    core: 2
    charge: 0.0
    file: /home/fr/fr_fr/fr_ez1021/source/gpaw-setups/gpaw-setups-0.9.20000/C.PBE.gz
    compensation charges: {type: gauss,
                           rc: 0.20,
                           lmax: 2}
    cutoffs: {filter: 1.14,
              core: 1.14}
    valence states:
      #              energy  rcut
      - 2s(2.00)   -13.751   0.635
      - 2p(2.00)    -5.284   0.635
      -  s          13.461   0.635
      -  p          21.927   0.635
      -  d           0.000   0.635
  
    # Using partial waves for C as LCAO basis

  O:
    name: Oxygen
    id: 32ecd46bf208036f09c70b0ec9a88b78
    Z: 8.0
    valence: 6
    core: 2
    charge: 0.0
    file: /home/fr/fr_fr/fr_ez1021/source/gpaw-setups/gpaw-setups-0.9.20000/O.PBE.gz
    compensation charges: {type: gauss,
                           rc: 0.21,
                           lmax: 2}
    cutoffs: {filter: 1.17,
              core: 0.83}
    valence states:
      #              energy  rcut
      - 2s(2.00)   -23.961   0.688
      - 2p(4.00)    -9.029   0.598
      -  s           3.251   0.688
      -  p          18.182   0.598
      -  d           0.000   0.619
  
    # Using partial waves for O as LCAO basis

  H:
    name: Hydrogen
    id: d65de229564ff8ea4db303e23b6d1ecf
    Z: 1.0
    valence: 1
    core: 0
    charge: 0.0
    file: /home/fr/fr_fr/fr_ez1021/source/gpaw-setups/gpaw-setups-0.9.20000/H.PBE.gz
    compensation charges: {type: gauss,
                           rc: 0.15,
                           lmax: 2}
    cutoffs: {filter: 0.85,
              core: 0.53}
    valence states:
      #              energy  rcut
      - 1s(1.00)    -6.494   0.476
      -  s          20.717   0.476
      -  p           0.000   0.476
  
    # Using partial waves for H as LCAO basis

  S:
    name: Sulfur
    id: ca434db9faa07220b7a1d8cb6886b7a9
    Z: 16.0
    valence: 6
    core: 10
    charge: 0.0
    file: /home/fr/fr_fr/fr_ez1021/source/gpaw-setups/gpaw-setups-0.9.20000/S.PBE.gz
    compensation charges: {type: gauss,
                           rc: 0.24,
                           lmax: 2}
    cutoffs: {filter: 1.77,
              core: 1.66}
    valence states:
      #              energy  rcut
      - 3s(2.00)   -17.254   0.974
      - 3p(4.00)    -7.008   0.979
      -  s           9.957   0.974
      -  p          20.203   0.979
      -  d           0.000   0.900
  
    # Using partial waves for S as LCAO basis

Reference energy: -19591.361486  # eV

Spin-paired calculation

Convergence criteria:
 Maximum [total energy] change in last 3 cyles: 0.0005 eV / valence electron
 Maximum integral of absolute [dens]ity change: 0.0001 electrons / valence electron
 Maximum integral of absolute [eigenst]ate change: 4e-08 eV^2 / valence electron
 Maximum number of scf [iter]ations: 333
 (Square brackets indicate name in SCF output, whereas a 'c' in
 the SCF output indicates the quantity has converged.)

Symmetries present (total): 1

  ( 1  0  0)
  ( 0  1  0)
  ( 0  0  1)

1 k-point (Gamma)
1 k-point in the irreducible part of the Brillouin zone
       k-points in crystal coordinates                weights
   0:     0.00000000    0.00000000    0.00000000          1/1

Wave functions: Uniform real-space grid
  Kinetic energy operator: 6*3+1=19 point O(h^6) finite-difference Laplacian
  ScaLapack parameters: grid=1x1, blocksize=None
  Wavefunction extrapolation:
    Improved wavefunction reuse through dual PAW basis 

Occupation numbers: # Zero width 

Eigensolver
   Davidson(niter=2) 

Densities:
  Coarse grid: 68*56*60 grid
  Fine grid: 136*112*120 grid
  Total Charge: 0.000000 

Density mixing:
  Method: separate
  Backend: pulay
  Linear mixing parameter: 0.25
  old densities: 3
  Damping of long wavelength oscillations: 1  # (no daming) 

Hamiltonian:
  XC and Coulomb potentials evaluated on a 136*112*120 grid
  Using the PBE Exchange-Correlation functional
  Interpolation: tri-quintic (5. degree polynomial)
  Poisson solver: Jacobi weighted FD solver with dielectric and 4 multi-grid levels
    Coarsest grid: 17 x 14 x 15 points
    Stencil: Weighted Finite Difference Operator
      6*3+1=19 point O(h^6) finite-difference Laplacian
      Finite-difference x-derivative with O(h^6) error (6 points)
      Finite-difference y-derivative with O(h^6) error (6 points)
      Finite-difference z-derivative with O(h^6) error (6 points)
    Max iterations: 1000
    Tolerance: 2.000000e-10

  Solvation:
    Cavity:  EffectivePotentialCavity
      Surface Calculator: GradientSurface with 3 nn
      Volume Calculator: KB51Volume
        compressibility: 72.57860092224
        temperature:     298.15
      EffectivePotentialCavity
        Potential: Power12Potential
          u0: 0.18eV
          pbc_cutoff: 1e-06
          tiny: 1e-10
        temperature: 298.15K    Dielectric:
      Type: LinearDielectric
      Solvent dielectric constant: 1.77    Interaction: SurfaceInteraction
      subscript: surf
      Surface_tension: 0.0011484376791625194 eV/(Angstrom^2)
XC parameters: PBE with 2 nearest neighbor stencil

Memory estimate:
  Process memory now: 148.50 MiB
  Calculator: 35.84 MiB
    Density: 3.70 MiB
      Arrays: 2.64 MiB
      Localized functions: 0.48 MiB
      Mixer: 0.57 MiB
    Hamiltonian: 25.80 MiB
      Arrays: 1.73 MiB
      XC: 0.00 MiB
      Poisson: 1.98 MiB
      vbar: 0.04 MiB
      Solvation: 22.06 MiB
    Wavefunctions: 6.34 MiB
      Arrays psit_nG: 2.87 MiB
      Eigensolver: 3.41 MiB
      Projections: 0.00 MiB
      Projectors: 0.05 MiB

Total number of cores used: 16
Domain decomposition: 4 x 2 x 2

Number of atoms: 14
Number of atomic orbitals: 35
Number of bands in calculation: 30
Number of valence electrons: 42
Bands to converge: occupied

... initialized

Initializing position-dependent things.

Solvation position-dependent initialization:
  Atomic radii for Power12Potential:
    Type    Radius   No. of atoms
       H     1.090     7
       O     1.520     2
       N     1.550     1
       C     1.700     3
       S     1.800     1

Density initialized from atomic densities
Creating initial wave functions:
  30 bands from LCAO basis set

        .--------------------------------.  
       /|                                |  
      / |                                |  
     /  |                                |  
    /   |                                |  
   /    |                                |  
  /     |                                |  
 *      |                                |  
 |      |                 O              |  
 |      |          H                     |  
 |      |      H   C  H   C              |  
 |      |      S    H C    O             |  
 |      |                                |  
 |      |           H NHH                |  
 |      |                                |  
 |      .--------------------------------.  
 |     /                                /   
 |    /                                /    
 |   /                                /     
 |  /                                /      
 | /                                /       
 |/                                /        
 *--------------------------------*         

Positions:
   0 N      7.298468    5.491675    4.750711    ( 0.0000,  0.0000,  0.0000)
   1 C      7.138215    6.048440    6.126043    ( 0.0000,  0.0000,  0.0000)
   2 C      8.553590    6.152034    6.779260    ( 0.0000,  0.0000,  0.0000)
   3 O      9.466184    5.458135    6.243521    ( 0.0000,  0.0000,  0.0000)
   4 H      7.466040    6.229633    4.057283    ( 0.0000,  0.0000,  0.0000)
   5 H      8.132017    4.877235    4.764881    ( 0.0000,  0.0000,  0.0000)
   6 H      6.697611    7.046788    6.038392    ( 0.0000,  0.0000,  0.0000)
   7 C      6.220703    5.143924    6.952680    ( 0.0000,  0.0000,  0.0000)
   8 S      4.600866    4.787746    6.173621    ( 0.0000,  0.0000,  0.0000)
   9 H      6.063040    5.584212    7.942717    ( 0.0000,  0.0000,  0.0000)
  10 H      6.674846    4.153212    7.087175    ( 0.0000,  0.0000,  0.0000)
  11 H      4.133816    6.059638    6.170556    ( 0.0000,  0.0000,  0.0000)
  12 O      8.643107    6.897546    7.789501    ( 0.0000,  0.0000,  0.0000)
  13 H      6.454178    4.973107    4.459260    ( 0.0000,  0.0000,  0.0000)

Unit cell:
           periodic     x           y           z      points  spacing
  1. axis:    no    13.600000    0.000000    0.000000    68     0.2000
  2. axis:    no     0.000000   11.200000    0.000000    56     0.2000
  3. axis:    no     0.000000    0.000000   12.000000    60     0.2000

  Lengths:  13.600000  11.200000  12.000000
  Angles:   90.000000  90.000000  90.000000

Effective grid spacing dv^(1/3) = 0.2000

     iter     time        total  log10-change:
                         energy   eigst   dens
iter:   1 21:40:29   -85.304362
iter:   2 21:40:30   -80.528469   +0.54  -0.74
iter:   3 21:40:31   -79.324832   +0.45  -0.94
iter:   4 21:40:32   -79.134648   -0.25  -1.16
iter:   5 21:40:32   -79.140081   -0.75  -1.60
iter:   6 21:40:33   -79.135589c  -1.23  -2.05
iter:   7 21:40:33   -79.133821c  -1.96  -2.35
iter:   8 21:40:34   -79.133313c  -2.39  -2.59
iter:   9 21:40:34   -79.132768c  -2.97  -3.04
iter:  10 21:40:35   -79.133011c  -3.27  -3.22
iter:  11 21:40:35   -79.133422c  -3.80  -3.62
iter:  12 21:40:35   -79.133215c  -4.12  -3.84
iter:  13 21:40:36   -79.133119c  -4.44  -4.01c
iter:  14 21:40:36   -79.133252c  -4.84  -4.40c
iter:  15 21:40:36   -79.133257c  -5.16  -4.55c
iter:  16 21:40:36   -79.133035c  -5.51  -4.82c
iter:  17 21:40:37   -79.133089c  -5.80  -4.98c
iter:  18 21:40:37   -79.133202c  -6.16  -5.36c
iter:  19 21:40:37   -79.133188c  -6.45  -5.45c
iter:  20 21:40:37   -79.133171c  -6.80  -5.54c
iter:  21 21:40:38   -79.133170c  -7.28  -6.05c
iter:  22 21:40:38   -79.133166c  -7.57c -6.09c

Converged after 22 iterations.

Dipole moment: (-1.482371, -0.321750, -1.528877) |e|*Ang

Energy contributions relative to reference atoms: (reference = -19591.361486)

Kinetic:        +80.122912
Potential:      -89.686207
External:        +0.000000
XC:             -72.212525
Entropy (-ST):   +0.000000
Local:           +2.459793
Interactions  
 surf:           +0.182861
--------------------------
Free energy:    -79.133166
Extrapolated:   -79.133166

Solvation cavity surface area: 159.22601
Solvation cavity volume: 161.55544
 Band  Eigenvalues  Occupancy
    0    -25.86161    2.00000
    1    -25.05750    2.00000
    2    -23.11091    2.00000
    3    -20.61931    2.00000
    4    -18.44108    2.00000
    5    -16.07483    2.00000
    6    -15.03035    2.00000
    7    -14.87460    2.00000
    8    -13.18441    2.00000
    9    -12.38088    2.00000
   10    -11.14888    2.00000
   11    -10.90670    2.00000
   12    -10.40279    2.00000
   13     -9.64739    2.00000
   14     -9.33994    2.00000
   15     -9.12595    2.00000
   16     -8.66323    2.00000
   17     -6.65613    2.00000
   18     -5.80832    2.00000
   19     -5.63122    2.00000
   20     -5.13997    2.00000
   21     -1.45669    0.00000
   22     -1.12368    0.00000
   23     -0.62810    0.00000
   24     -0.27666    0.00000
   25      0.06337    0.00000
   26      0.33750    0.00000
   27      0.53746    0.00000
   28      0.87468    0.00000
   29      0.88100    0.00000

Fermi level: -3.29833

Gap: 3.683 eV
Transition (v -> c):
  (s=0, k=0, n=20, [0.00, 0.00, 0.00]) -> (s=0, k=0, n=21, [0.00, 0.00, 0.00])
Input parameters:
  external: {direction: [1. 0. 0.],
             name: ConstantElectricField,
             strength: 0.01}

Initialize ...

species:
  N:
    name: Nitrogen
    id: f7500608b86eaa90eef8b1d9a670dc53
    Z: 7.0
    valence: 5
    core: 2
    charge: 0.0
    file: /home/fr/fr_fr/fr_ez1021/source/gpaw-setups/gpaw-setups-0.9.20000/N.PBE.gz
    compensation charges: {type: gauss,
                           rc: 0.18,
                           lmax: 2}
    cutoffs: {filter: 1.11,
              core: 0.96}
    valence states:
      #              energy  rcut
      - 2s(2.00)   -18.583   0.603
      - 2p(3.00)    -7.089   0.529
      -  s           8.629   0.603
      -  p          20.123   0.529
      -  d           0.000   0.577
  
    # Using partial waves for N as LCAO basis

  C:
    name: Carbon
    id: 4aa54d4b901d75f77cc0ea3eec22967b
    Z: 6.0
    valence: 4
    core: 2
    charge: 0.0
    file: /home/fr/fr_fr/fr_ez1021/source/gpaw-setups/gpaw-setups-0.9.20000/C.PBE.gz
    compensation charges: {type: gauss,
                           rc: 0.20,
                           lmax: 2}
    cutoffs: {filter: 1.14,
              core: 1.14}
    valence states:
      #              energy  rcut
      - 2s(2.00)   -13.751   0.635
      - 2p(2.00)    -5.284   0.635
      -  s          13.461   0.635
      -  p          21.927   0.635
      -  d           0.000   0.635
  
    # Using partial waves for C as LCAO basis

  O:
    name: Oxygen
    id: 32ecd46bf208036f09c70b0ec9a88b78
    Z: 8.0
    valence: 6
    core: 2
    charge: 0.0
    file: /home/fr/fr_fr/fr_ez1021/source/gpaw-setups/gpaw-setups-0.9.20000/O.PBE.gz
    compensation charges: {type: gauss,
                           rc: 0.21,
                           lmax: 2}
    cutoffs: {filter: 1.17,
              core: 0.83}
    valence states:
      #              energy  rcut
      - 2s(2.00)   -23.961   0.688
      - 2p(4.00)    -9.029   0.598
      -  s           3.251   0.688
      -  p          18.182   0.598
      -  d           0.000   0.619
  
    # Using partial waves for O as LCAO basis

  H:
    name: Hydrogen
    id: d65de229564ff8ea4db303e23b6d1ecf
    Z: 1.0
    valence: 1
    core: 0
    charge: 0.0
    file: /home/fr/fr_fr/fr_ez1021/source/gpaw-setups/gpaw-setups-0.9.20000/H.PBE.gz
    compensation charges: {type: gauss,
                           rc: 0.15,
                           lmax: 2}
    cutoffs: {filter: 0.85,
              core: 0.53}
    valence states:
      #              energy  rcut
      - 1s(1.00)    -6.494   0.476
      -  s          20.717   0.476
      -  p           0.000   0.476
  
    # Using partial waves for H as LCAO basis

  S:
    name: Sulfur
    id: ca434db9faa07220b7a1d8cb6886b7a9
    Z: 16.0
    valence: 6
    core: 10
    charge: 0.0
    file: /home/fr/fr_fr/fr_ez1021/source/gpaw-setups/gpaw-setups-0.9.20000/S.PBE.gz
    compensation charges: {type: gauss,
                           rc: 0.24,
                           lmax: 2}
    cutoffs: {filter: 1.77,
              core: 1.66}
    valence states:
      #              energy  rcut
      - 3s(2.00)   -17.254   0.974
      - 3p(4.00)    -7.008   0.979
      -  s           9.957   0.974
      -  p          20.203   0.979
      -  d           0.000   0.900
  
    # Using partial waves for S as LCAO basis

Reference energy: -19591.361486  # eV

Spin-paired calculation

Convergence criteria:
 Maximum [total energy] change in last 3 cyles: 0.0005 eV / valence electron
 Maximum integral of absolute [dens]ity change: 0.0001 electrons / valence electron
 Maximum integral of absolute [eigenst]ate change: 4e-08 eV^2 / valence electron
 Maximum number of scf [iter]ations: 333
 (Square brackets indicate name in SCF output, whereas a 'c' in
 the SCF output indicates the quantity has converged.)

Symmetries present (total): 1

  ( 1  0  0)
  ( 0  1  0)
  ( 0  0  1)

1 k-point (Gamma)
1 k-point in the irreducible part of the Brillouin zone
       k-points in crystal coordinates                weights
   0:     0.00000000    0.00000000    0.00000000          1/1

Wave functions: Uniform real-space grid
  Kinetic energy operator: 6*3+1=19 point O(h^6) finite-difference Laplacian
  ScaLapack parameters: grid=1x1, blocksize=None
  Wavefunction extrapolation:
    Improved wavefunction reuse through dual PAW basis 

Occupation numbers: # Zero width 

Eigensolver
   Davidson(niter=2) 

Densities:
  Coarse grid: 68*56*60 grid
  Fine grid: 136*112*120 grid
  Total Charge: 0.000000 

Density mixing:
  Method: separate
  Backend: pulay
  Linear mixing parameter: 0.25
  old densities: 3
  Damping of long wavelength oscillations: 1  # (no daming) 

Hamiltonian:
  XC and Coulomb potentials evaluated on a 136*112*120 grid
  Using the PBE Exchange-Correlation functional
  External potential:
    Constant electric field: (0.010, 0.000, 0.000) V/Ang
  Interpolation: tri-quintic (5. degree polynomial)
  Poisson solver: Jacobi weighted FD solver with dielectric and 4 multi-grid levels
    Coarsest grid: 17 x 14 x 15 points
    Stencil: Weighted Finite Difference Operator
      6*3+1=19 point O(h^6) finite-difference Laplacian
      Finite-difference x-derivative with O(h^6) error (6 points)
      Finite-difference y-derivative with O(h^6) error (6 points)
      Finite-difference z-derivative with O(h^6) error (6 points)
    Max iterations: 1000
    Tolerance: 2.000000e-10

  Solvation:
    Cavity:  EffectivePotentialCavity
      Surface Calculator: GradientSurface with 3 nn
      Volume Calculator: KB51Volume
        compressibility: 72.57860092224
        temperature:     298.15
      EffectivePotentialCavity
        Potential: Power12Potential
          u0: 0.18eV
          pbc_cutoff: 1e-06
          tiny: 1e-10
        temperature: 298.15K    Dielectric:
      Type: LinearDielectric
      Solvent dielectric constant: 1.77    Interaction: SurfaceInteraction
      subscript: surf
      Surface_tension: 0.0011484376791625194 eV/(Angstrom^2)
XC parameters: PBE with 2 nearest neighbor stencil

Memory estimate:
  Process memory now: 217.62 MiB
  Calculator: 35.84 MiB
    Density: 3.70 MiB
      Arrays: 2.64 MiB
      Localized functions: 0.48 MiB
      Mixer: 0.57 MiB
    Hamiltonian: 25.80 MiB
      Arrays: 1.73 MiB
      XC: 0.00 MiB
      Poisson: 1.98 MiB
      vbar: 0.04 MiB
      Solvation: 22.06 MiB
    Wavefunctions: 6.34 MiB
      Arrays psit_nG: 2.87 MiB
      Eigensolver: 3.41 MiB
      Projections: 0.00 MiB
      Projectors: 0.05 MiB

Total number of cores used: 16
Domain decomposition: 4 x 2 x 2

Number of atoms: 14
Number of atomic orbitals: 35
Number of bands in calculation: 30
Number of valence electrons: 42
Bands to converge: occupied

... initialized

Initializing position-dependent things.

Solvation position-dependent initialization:
  Atomic radii for Power12Potential:
    Type    Radius   No. of atoms
       H     1.090     7
       O     1.520     2
       N     1.550     1
       C     1.700     3
       S     1.800     1

Density initialized from atomic densities
Creating initial wave functions:
  30 bands from LCAO basis set

        .--------------------------------.  
       /|                                |  
      / |                                |  
     /  |                                |  
    /   |                                |  
   /    |                                |  
  /     |                                |  
 *      |                                |  
 |      |                 O              |  
 |      |          H                     |  
 |      |      H   C  H   C              |  
 |      |      S    H C    O             |  
 |      |                                |  
 |      |           H NHH                |  
 |      |                                |  
 |      .--------------------------------.  
 |     /                                /   
 |    /                                /    
 |   /                                /     
 |  /                                /      
 | /                                /       
 |/                                /        
 *--------------------------------*         

Positions:
   0 N      7.298468    5.491675    4.750711    ( 0.0000,  0.0000,  0.0000)
   1 C      7.138215    6.048440    6.126043    ( 0.0000,  0.0000,  0.0000)
   2 C      8.553590    6.152034    6.779260    ( 0.0000,  0.0000,  0.0000)
   3 O      9.466184    5.458135    6.243521    ( 0.0000,  0.0000,  0.0000)
   4 H      7.466040    6.229633    4.057283    ( 0.0000,  0.0000,  0.0000)
   5 H      8.132017    4.877235    4.764881    ( 0.0000,  0.0000,  0.0000)
   6 H      6.697611    7.046788    6.038392    ( 0.0000,  0.0000,  0.0000)
   7 C      6.220703    5.143924    6.952680    ( 0.0000,  0.0000,  0.0000)
   8 S      4.600866    4.787746    6.173621    ( 0.0000,  0.0000,  0.0000)
   9 H      6.063040    5.584212    7.942717    ( 0.0000,  0.0000,  0.0000)
  10 H      6.674846    4.153212    7.087175    ( 0.0000,  0.0000,  0.0000)
  11 H      4.133816    6.059638    6.170556    ( 0.0000,  0.0000,  0.0000)
  12 O      8.643107    6.897546    7.789501    ( 0.0000,  0.0000,  0.0000)
  13 H      6.454178    4.973107    4.459260    ( 0.0000,  0.0000,  0.0000)

Unit cell:
           periodic     x           y           z      points  spacing
  1. axis:    no    13.600000    0.000000    0.000000    68     0.2000
  2. axis:    no     0.000000   11.200000    0.000000    56     0.2000
  3. axis:    no     0.000000    0.000000   12.000000    60     0.2000

  Lengths:  13.600000  11.200000  12.000000
  Angles:   90.000000  90.000000  90.000000

Effective grid spacing dv^(1/3) = 0.2000

     iter     time        total  log10-change:
                         energy   eigst   dens
iter:   1 21:40:40   -85.281681
iter:   2 21:40:41   -80.512473   +0.54  -0.75
iter:   3 21:40:42   -79.309683   +0.45  -0.94
iter:   4 21:40:42   -79.119872   -0.25  -1.16
iter:   5 21:40:43   -79.125312   -0.75  -1.60
iter:   6 21:40:44   -79.120817c  -1.23  -2.05
iter:   7 21:40:44   -79.119052c  -1.96  -2.35
iter:   8 21:40:45   -79.118546c  -2.39  -2.59
iter:   9 21:40:45   -79.118004c  -2.97  -3.04
iter:  10 21:40:45   -79.118246c  -3.27  -3.22
iter:  11 21:40:46   -79.118655c  -3.80  -3.62
iter:  12 21:40:46   -79.118450c  -4.12  -3.84
iter:  13 21:40:46   -79.118354c  -4.44  -4.01c
iter:  14 21:40:47   -79.118487c  -4.84  -4.40c
iter:  15 21:40:47   -79.118491c  -5.16  -4.55c
iter:  16 21:40:47   -79.118270c  -5.50  -4.82c
iter:  17 21:40:47   -79.118324c  -5.80  -4.98c
iter:  18 21:40:48   -79.118437c  -6.16  -5.36c
iter:  19 21:40:48   -79.118423c  -6.45  -5.44c
iter:  20 21:40:48   -79.118406c  -6.80  -5.54c
iter:  21 21:40:48   -79.118405c  -7.27  -6.05c
iter:  22 21:40:49   -79.118401c  -7.56c -6.08c

Converged after 22 iterations.

Dipole moment: (-1.470617, -0.321128, -1.528393) |e|*Ang

Energy contributions relative to reference atoms: (reference = -19591.361486)

Kinetic:        +80.126145
Potential:      -89.692149
External:        +0.014706
XC:             -72.209616
Entropy (-ST):   +0.000000
Local:           +2.459651
Interactions  
 surf:           +0.182861
--------------------------
Free energy:    -79.118401
Extrapolated:   -79.118401

Solvation cavity surface area: 159.22601
Solvation cavity volume: 161.55544
 Band  Eigenvalues  Occupancy
    0    -25.85416    2.00000
    1    -25.04717    2.00000
    2    -23.09655    2.00000
    3    -20.62615    2.00000
    4    -18.44544    2.00000
    5    -16.07920    2.00000
    6    -15.02671    2.00000
    7    -14.87247    2.00000
    8    -13.18131    2.00000
    9    -12.37813    2.00000
   10    -11.15435    2.00000
   11    -10.90887    2.00000
   12    -10.39468    2.00000
   13     -9.64758    2.00000
   14     -9.32724    2.00000
   15     -9.12323    2.00000
   16     -8.66487    2.00000
   17     -6.66949    2.00000
   18     -5.79295    2.00000
   19     -5.61793    2.00000
   20     -5.12614    2.00000
   21     -1.46446    0.00000
   22     -1.12928    0.00000
   23     -0.64310    0.00000
   24     -0.27742    0.00000
   25      0.06384    0.00000
   26      0.33858    0.00000
   27      0.53296    0.00000
   28      0.87150    0.00000
   29      0.87557    0.00000

Fermi level: -3.29530

Gap: 3.662 eV
Transition (v -> c):
  (s=0, k=0, n=20, [0.00, 0.00, 0.00]) -> (s=0, k=0, n=21, [0.00, 0.00, 0.00])
Input parameters:
  external: {direction: [0. 1. 0.],
             name: ConstantElectricField,
             strength: 0.01}

Initialize ...

species:
  N:
    name: Nitrogen
    id: f7500608b86eaa90eef8b1d9a670dc53
    Z: 7.0
    valence: 5
    core: 2
    charge: 0.0
    file: /home/fr/fr_fr/fr_ez1021/source/gpaw-setups/gpaw-setups-0.9.20000/N.PBE.gz
    compensation charges: {type: gauss,
                           rc: 0.18,
                           lmax: 2}
    cutoffs: {filter: 1.11,
              core: 0.96}
    valence states:
      #              energy  rcut
      - 2s(2.00)   -18.583   0.603
      - 2p(3.00)    -7.089   0.529
      -  s           8.629   0.603
      -  p          20.123   0.529
      -  d           0.000   0.577
  
    # Using partial waves for N as LCAO basis

  C:
    name: Carbon
    id: 4aa54d4b901d75f77cc0ea3eec22967b
    Z: 6.0
    valence: 4
    core: 2
    charge: 0.0
    file: /home/fr/fr_fr/fr_ez1021/source/gpaw-setups/gpaw-setups-0.9.20000/C.PBE.gz
    compensation charges: {type: gauss,
                           rc: 0.20,
                           lmax: 2}
    cutoffs: {filter: 1.14,
              core: 1.14}
    valence states:
      #              energy  rcut
      - 2s(2.00)   -13.751   0.635
      - 2p(2.00)    -5.284   0.635
      -  s          13.461   0.635
      -  p          21.927   0.635
      -  d           0.000   0.635
  
    # Using partial waves for C as LCAO basis

  O:
    name: Oxygen
    id: 32ecd46bf208036f09c70b0ec9a88b78
    Z: 8.0
    valence: 6
    core: 2
    charge: 0.0
    file: /home/fr/fr_fr/fr_ez1021/source/gpaw-setups/gpaw-setups-0.9.20000/O.PBE.gz
    compensation charges: {type: gauss,
                           rc: 0.21,
                           lmax: 2}
    cutoffs: {filter: 1.17,
              core: 0.83}
    valence states:
      #              energy  rcut
      - 2s(2.00)   -23.961   0.688
      - 2p(4.00)    -9.029   0.598
      -  s           3.251   0.688
      -  p          18.182   0.598
      -  d           0.000   0.619
  
    # Using partial waves for O as LCAO basis

  H:
    name: Hydrogen
    id: d65de229564ff8ea4db303e23b6d1ecf
    Z: 1.0
    valence: 1
    core: 0
    charge: 0.0
    file: /home/fr/fr_fr/fr_ez1021/source/gpaw-setups/gpaw-setups-0.9.20000/H.PBE.gz
    compensation charges: {type: gauss,
                           rc: 0.15,
                           lmax: 2}
    cutoffs: {filter: 0.85,
              core: 0.53}
    valence states:
      #              energy  rcut
      - 1s(1.00)    -6.494   0.476
      -  s          20.717   0.476
      -  p           0.000   0.476
  
    # Using partial waves for H as LCAO basis

  S:
    name: Sulfur
    id: ca434db9faa07220b7a1d8cb6886b7a9
    Z: 16.0
    valence: 6
    core: 10
    charge: 0.0
    file: /home/fr/fr_fr/fr_ez1021/source/gpaw-setups/gpaw-setups-0.9.20000/S.PBE.gz
    compensation charges: {type: gauss,
                           rc: 0.24,
                           lmax: 2}
    cutoffs: {filter: 1.77,
              core: 1.66}
    valence states:
      #              energy  rcut
      - 3s(2.00)   -17.254   0.974
      - 3p(4.00)    -7.008   0.979
      -  s           9.957   0.974
      -  p          20.203   0.979
      -  d           0.000   0.900
  
    # Using partial waves for S as LCAO basis

Reference energy: -19591.361486  # eV

Spin-paired calculation

Convergence criteria:
 Maximum [total energy] change in last 3 cyles: 0.0005 eV / valence electron
 Maximum integral of absolute [dens]ity change: 0.0001 electrons / valence electron
 Maximum integral of absolute [eigenst]ate change: 4e-08 eV^2 / valence electron
 Maximum number of scf [iter]ations: 333
 (Square brackets indicate name in SCF output, whereas a 'c' in
 the SCF output indicates the quantity has converged.)

Symmetries present (total): 1

  ( 1  0  0)
  ( 0  1  0)
  ( 0  0  1)

1 k-point (Gamma)
1 k-point in the irreducible part of the Brillouin zone
       k-points in crystal coordinates                weights
   0:     0.00000000    0.00000000    0.00000000          1/1

Wave functions: Uniform real-space grid
  Kinetic energy operator: 6*3+1=19 point O(h^6) finite-difference Laplacian
  ScaLapack parameters: grid=1x1, blocksize=None
  Wavefunction extrapolation:
    Improved wavefunction reuse through dual PAW basis 

Occupation numbers: # Zero width 

Eigensolver
   Davidson(niter=2) 

Densities:
  Coarse grid: 68*56*60 grid
  Fine grid: 136*112*120 grid
  Total Charge: 0.000000 

Density mixing:
  Method: separate
  Backend: pulay
  Linear mixing parameter: 0.25
  old densities: 3
  Damping of long wavelength oscillations: 1  # (no daming) 

Hamiltonian:
  XC and Coulomb potentials evaluated on a 136*112*120 grid
  Using the PBE Exchange-Correlation functional
  External potential:
    Constant electric field: (0.000, 0.010, 0.000) V/Ang
  Interpolation: tri-quintic (5. degree polynomial)
  Poisson solver: Jacobi weighted FD solver with dielectric and 4 multi-grid levels
    Coarsest grid: 17 x 14 x 15 points
    Stencil: Weighted Finite Difference Operator
      6*3+1=19 point O(h^6) finite-difference Laplacian
      Finite-difference x-derivative with O(h^6) error (6 points)
      Finite-difference y-derivative with O(h^6) error (6 points)
      Finite-difference z-derivative with O(h^6) error (6 points)
    Max iterations: 1000
    Tolerance: 2.000000e-10

  Solvation:
    Cavity:  EffectivePotentialCavity
      Surface Calculator: GradientSurface with 3 nn
      Volume Calculator: KB51Volume
        compressibility: 72.57860092224
        temperature:     298.15
      EffectivePotentialCavity
        Potential: Power12Potential
          u0: 0.18eV
          pbc_cutoff: 1e-06
          tiny: 1e-10
        temperature: 298.15K    Dielectric:
      Type: LinearDielectric
      Solvent dielectric constant: 1.77    Interaction: SurfaceInteraction
      subscript: surf
      Surface_tension: 0.0011484376791625194 eV/(Angstrom^2)
XC parameters: PBE with 2 nearest neighbor stencil

Memory estimate:
  Process memory now: 222.87 MiB
  Calculator: 35.84 MiB
    Density: 3.70 MiB
      Arrays: 2.64 MiB
      Localized functions: 0.48 MiB
      Mixer: 0.57 MiB
    Hamiltonian: 25.80 MiB
      Arrays: 1.73 MiB
      XC: 0.00 MiB
      Poisson: 1.98 MiB
      vbar: 0.04 MiB
      Solvation: 22.06 MiB
    Wavefunctions: 6.34 MiB
      Arrays psit_nG: 2.87 MiB
      Eigensolver: 3.41 MiB
      Projections: 0.00 MiB
      Projectors: 0.05 MiB

Total number of cores used: 16
Domain decomposition: 4 x 2 x 2

Number of atoms: 14
Number of atomic orbitals: 35
Number of bands in calculation: 30
Number of valence electrons: 42
Bands to converge: occupied

... initialized

Initializing position-dependent things.

Solvation position-dependent initialization:
  Atomic radii for Power12Potential:
    Type    Radius   No. of atoms
       H     1.090     7
       O     1.520     2
       N     1.550     1
       C     1.700     3
       S     1.800     1

Density initialized from atomic densities
Creating initial wave functions:
  30 bands from LCAO basis set

        .--------------------------------.  
       /|                                |  
      / |                                |  
     /  |                                |  
    /   |                                |  
   /    |                                |  
  /     |                                |  
 *      |                                |  
 |      |                 O              |  
 |      |          H                     |  
 |      |      H   C  H   C              |  
 |      |      S    H C    O             |  
 |      |                                |  
 |      |           H NHH                |  
 |      |                                |  
 |      .--------------------------------.  
 |     /                                /   
 |    /                                /    
 |   /                                /     
 |  /                                /      
 | /                                /       
 |/                                /        
 *--------------------------------*         

Positions:
   0 N      7.298468    5.491675    4.750711    ( 0.0000,  0.0000,  0.0000)
   1 C      7.138215    6.048440    6.126043    ( 0.0000,  0.0000,  0.0000)
   2 C      8.553590    6.152034    6.779260    ( 0.0000,  0.0000,  0.0000)
   3 O      9.466184    5.458135    6.243521    ( 0.0000,  0.0000,  0.0000)
   4 H      7.466040    6.229633    4.057283    ( 0.0000,  0.0000,  0.0000)
   5 H      8.132017    4.877235    4.764881    ( 0.0000,  0.0000,  0.0000)
   6 H      6.697611    7.046788    6.038392    ( 0.0000,  0.0000,  0.0000)
   7 C      6.220703    5.143924    6.952680    ( 0.0000,  0.0000,  0.0000)
   8 S      4.600866    4.787746    6.173621    ( 0.0000,  0.0000,  0.0000)
   9 H      6.063040    5.584212    7.942717    ( 0.0000,  0.0000,  0.0000)
  10 H      6.674846    4.153212    7.087175    ( 0.0000,  0.0000,  0.0000)
  11 H      4.133816    6.059638    6.170556    ( 0.0000,  0.0000,  0.0000)
  12 O      8.643107    6.897546    7.789501    ( 0.0000,  0.0000,  0.0000)
  13 H      6.454178    4.973107    4.459260    ( 0.0000,  0.0000,  0.0000)

Unit cell:
           periodic     x           y           z      points  spacing
  1. axis:    no    13.600000    0.000000    0.000000    68     0.2000
  2. axis:    no     0.000000   11.200000    0.000000    56     0.2000
  3. axis:    no     0.000000    0.000000   12.000000    60     0.2000

  Lengths:  13.600000  11.200000  12.000000
  Angles:   90.000000  90.000000  90.000000

Effective grid spacing dv^(1/3) = 0.2000

     iter     time        total  log10-change:
                         energy   eigst   dens
iter:   1 21:40:51   -85.298713
iter:   2 21:40:52   -80.524395   +0.54  -0.74
iter:   3 21:40:53   -79.321608   +0.45  -0.94
iter:   4 21:40:53   -79.131479   -0.25  -1.16
iter:   5 21:40:54   -79.136900   -0.75  -1.60
iter:   6 21:40:54   -79.132415c  -1.23  -2.05
iter:   7 21:40:55   -79.130645c  -1.96  -2.35
iter:   8 21:40:55   -79.130137c  -2.39  -2.59
iter:   9 21:40:56   -79.129590c  -2.97  -3.04
iter:  10 21:40:56   -79.129835c  -3.27  -3.22
iter:  11 21:40:56   -79.130245c  -3.80  -3.62
iter:  12 21:40:57   -79.130039c  -4.12  -3.84
iter:  13 21:40:57   -79.129942c  -4.44  -4.01c
iter:  14 21:40:57   -79.130077c  -4.84  -4.40c
iter:  15 21:40:58   -79.130081c  -5.16  -4.55c
iter:  16 21:40:58   -79.129857c  -5.50  -4.82c
iter:  17 21:40:58   -79.129977c  -5.80  -4.98c
iter:  18 21:40:58   -79.130040c  -6.21  -5.36c
iter:  19 21:40:59   -79.130020c  -6.43  -5.43c
iter:  20 21:40:59   -79.129969c  -6.77  -5.57c
iter:  21 21:40:59   -79.130001c  -7.13  -5.81c
iter:  22 21:40:59   -79.130014c  -7.51c -5.93c

Converged after 22 iterations.

Dipole moment: (-1.481744, -0.313447, -1.527869) |e|*Ang

Energy contributions relative to reference atoms: (reference = -19591.361486)

Kinetic:        +80.123208
Potential:      -89.687190
External:        +0.003134
XC:             -72.211720
Entropy (-ST):   +0.000000
Local:           +2.459693
Interactions  
 surf:           +0.182861
--------------------------
Free energy:    -79.130014
Extrapolated:   -79.130014

Solvation cavity surface area: 159.22601
Solvation cavity volume: 161.55544
 Band  Eigenvalues  Occupancy
    0    -25.86030    2.00000
    1    -25.05504    2.00000
    2    -23.10689    2.00000
    3    -20.62196    2.00000
    4    -18.44201    2.00000
    5    -16.07671    2.00000
    6    -15.03083    2.00000
    7    -14.87430    2.00000
    8    -13.18358    2.00000
    9    -12.38070    2.00000
   10    -11.14937    2.00000
   11    -10.90817    2.00000
   12    -10.40183    2.00000
   13     -9.64772    2.00000
   14     -9.33605    2.00000
   15     -9.12564    2.00000
   16     -8.66460    2.00000
   17     -6.66077    2.00000
   18     -5.80417    2.00000
   19     -5.62972    2.00000
   20     -5.13419    2.00000
   21     -1.45643    0.00000
   22     -1.12542    0.00000
   23     -0.62770    0.00000
   24     -0.27839    0.00000
   25      0.06588    0.00000
   26      0.33085    0.00000
   27      0.53257    0.00000
   28      0.86914    0.00000
   29      0.87350    0.00000

Fermi level: -3.29531

Gap: 3.678 eV
Transition (v -> c):
  (s=0, k=0, n=20, [0.00, 0.00, 0.00]) -> (s=0, k=0, n=21, [0.00, 0.00, 0.00])
Input parameters:
  external: {direction: [0. 0. 1.],
             name: ConstantElectricField,
             strength: 0.01}

Initialize ...

species:
  N:
    name: Nitrogen
    id: f7500608b86eaa90eef8b1d9a670dc53
    Z: 7.0
    valence: 5
    core: 2
    charge: 0.0
    file: /home/fr/fr_fr/fr_ez1021/source/gpaw-setups/gpaw-setups-0.9.20000/N.PBE.gz
    compensation charges: {type: gauss,
                           rc: 0.18,
                           lmax: 2}
    cutoffs: {filter: 1.11,
              core: 0.96}
    valence states:
      #              energy  rcut
      - 2s(2.00)   -18.583   0.603
      - 2p(3.00)    -7.089   0.529
      -  s           8.629   0.603
      -  p          20.123   0.529
      -  d           0.000   0.577
  
    # Using partial waves for N as LCAO basis

  C:
    name: Carbon
    id: 4aa54d4b901d75f77cc0ea3eec22967b
    Z: 6.0
    valence: 4
    core: 2
    charge: 0.0
    file: /home/fr/fr_fr/fr_ez1021/source/gpaw-setups/gpaw-setups-0.9.20000/C.PBE.gz
    compensation charges: {type: gauss,
                           rc: 0.20,
                           lmax: 2}
    cutoffs: {filter: 1.14,
              core: 1.14}
    valence states:
      #              energy  rcut
      - 2s(2.00)   -13.751   0.635
      - 2p(2.00)    -5.284   0.635
      -  s          13.461   0.635
      -  p          21.927   0.635
      -  d           0.000   0.635
  
    # Using partial waves for C as LCAO basis

  O:
    name: Oxygen
    id: 32ecd46bf208036f09c70b0ec9a88b78
    Z: 8.0
    valence: 6
    core: 2
    charge: 0.0
    file: /home/fr/fr_fr/fr_ez1021/source/gpaw-setups/gpaw-setups-0.9.20000/O.PBE.gz
    compensation charges: {type: gauss,
                           rc: 0.21,
                           lmax: 2}
    cutoffs: {filter: 1.17,
              core: 0.83}
    valence states:
      #              energy  rcut
      - 2s(2.00)   -23.961   0.688
      - 2p(4.00)    -9.029   0.598
      -  s           3.251   0.688
      -  p          18.182   0.598
      -  d           0.000   0.619
  
    # Using partial waves for O as LCAO basis

  H:
    name: Hydrogen
    id: d65de229564ff8ea4db303e23b6d1ecf
    Z: 1.0
    valence: 1
    core: 0
    charge: 0.0
    file: /home/fr/fr_fr/fr_ez1021/source/gpaw-setups/gpaw-setups-0.9.20000/H.PBE.gz
    compensation charges: {type: gauss,
                           rc: 0.15,
                           lmax: 2}
    cutoffs: {filter: 0.85,
              core: 0.53}
    valence states:
      #              energy  rcut
      - 1s(1.00)    -6.494   0.476
      -  s          20.717   0.476
      -  p           0.000   0.476
  
    # Using partial waves for H as LCAO basis

  S:
    name: Sulfur
    id: ca434db9faa07220b7a1d8cb6886b7a9
    Z: 16.0
    valence: 6
    core: 10
    charge: 0.0
    file: /home/fr/fr_fr/fr_ez1021/source/gpaw-setups/gpaw-setups-0.9.20000/S.PBE.gz
    compensation charges: {type: gauss,
                           rc: 0.24,
                           lmax: 2}
    cutoffs: {filter: 1.77,
              core: 1.66}
    valence states:
      #              energy  rcut
      - 3s(2.00)   -17.254   0.974
      - 3p(4.00)    -7.008   0.979
      -  s           9.957   0.974
      -  p          20.203   0.979
      -  d           0.000   0.900
  
    # Using partial waves for S as LCAO basis

Reference energy: -19591.361486  # eV

Spin-paired calculation

Convergence criteria:
 Maximum [total energy] change in last 3 cyles: 0.0005 eV / valence electron
 Maximum integral of absolute [dens]ity change: 0.0001 electrons / valence electron
 Maximum integral of absolute [eigenst]ate change: 4e-08 eV^2 / valence electron
 Maximum number of scf [iter]ations: 333
 (Square brackets indicate name in SCF output, whereas a 'c' in
 the SCF output indicates the quantity has converged.)

Symmetries present (total): 1

  ( 1  0  0)
  ( 0  1  0)
  ( 0  0  1)

1 k-point (Gamma)
1 k-point in the irreducible part of the Brillouin zone
       k-points in crystal coordinates                weights
   0:     0.00000000    0.00000000    0.00000000          1/1

Wave functions: Uniform real-space grid
  Kinetic energy operator: 6*3+1=19 point O(h^6) finite-difference Laplacian
  ScaLapack parameters: grid=1x1, blocksize=None
  Wavefunction extrapolation:
    Improved wavefunction reuse through dual PAW basis 

Occupation numbers: # Zero width 

Eigensolver
   Davidson(niter=2) 

Densities:
  Coarse grid: 68*56*60 grid
  Fine grid: 136*112*120 grid
  Total Charge: 0.000000 

Density mixing:
  Method: separate
  Backend: pulay
  Linear mixing parameter: 0.25
  old densities: 3
  Damping of long wavelength oscillations: 1  # (no daming) 

Hamiltonian:
  XC and Coulomb potentials evaluated on a 136*112*120 grid
  Using the PBE Exchange-Correlation functional
  External potential:
    Constant electric field: (0.000, 0.000, 0.010) V/Ang
  Interpolation: tri-quintic (5. degree polynomial)
  Poisson solver: Jacobi weighted FD solver with dielectric and 4 multi-grid levels
    Coarsest grid: 17 x 14 x 15 points
    Stencil: Weighted Finite Difference Operator
      6*3+1=19 point O(h^6) finite-difference Laplacian
      Finite-difference x-derivative with O(h^6) error (6 points)
      Finite-difference y-derivative with O(h^6) error (6 points)
      Finite-difference z-derivative with O(h^6) error (6 points)
    Max iterations: 1000
    Tolerance: 2.000000e-10

  Solvation:
    Cavity:  EffectivePotentialCavity
      Surface Calculator: GradientSurface with 3 nn
      Volume Calculator: KB51Volume
        compressibility: 72.57860092224
        temperature:     298.15
      EffectivePotentialCavity
        Potential: Power12Potential
          u0: 0.18eV
          pbc_cutoff: 1e-06
          tiny: 1e-10
        temperature: 298.15K    Dielectric:
      Type: LinearDielectric
      Solvent dielectric constant: 1.77    Interaction: SurfaceInteraction
      subscript: surf
      Surface_tension: 0.0011484376791625194 eV/(Angstrom^2)
XC parameters: PBE with 2 nearest neighbor stencil

Memory estimate:
  Process memory now: 226.02 MiB
  Calculator: 35.84 MiB
    Density: 3.70 MiB
      Arrays: 2.64 MiB
      Localized functions: 0.48 MiB
      Mixer: 0.57 MiB
    Hamiltonian: 25.80 MiB
      Arrays: 1.73 MiB
      XC: 0.00 MiB
      Poisson: 1.98 MiB
      vbar: 0.04 MiB
      Solvation: 22.06 MiB
    Wavefunctions: 6.34 MiB
      Arrays psit_nG: 2.87 MiB
      Eigensolver: 3.41 MiB
      Projections: 0.00 MiB
      Projectors: 0.05 MiB

Total number of cores used: 16
Domain decomposition: 4 x 2 x 2

Number of atoms: 14
Number of atomic orbitals: 35
Number of bands in calculation: 30
Number of valence electrons: 42
Bands to converge: occupied

... initialized

Initializing position-dependent things.

Solvation position-dependent initialization:
  Atomic radii for Power12Potential:
    Type    Radius   No. of atoms
       H     1.090     7
       O     1.520     2
       N     1.550     1
       C     1.700     3
       S     1.800     1

Density initialized from atomic densities
Creating initial wave functions:
  30 bands from LCAO basis set

        .--------------------------------.  
       /|                                |  
      / |                                |  
     /  |                                |  
    /   |                                |  
   /    |                                |  
  /     |                                |  
 *      |                                |  
 |      |                 O              |  
 |      |          H                     |  
 |      |      H   C  H   C              |  
 |      |      S    H C    O             |  
 |      |                                |  
 |      |           H NHH                |  
 |      |                                |  
 |      .--------------------------------.  
 |     /                                /   
 |    /                                /    
 |   /                                /     
 |  /                                /      
 | /                                /       
 |/                                /        
 *--------------------------------*         

Positions:
   0 N      7.298468    5.491675    4.750711    ( 0.0000,  0.0000,  0.0000)
   1 C      7.138215    6.048440    6.126043    ( 0.0000,  0.0000,  0.0000)
   2 C      8.553590    6.152034    6.779260    ( 0.0000,  0.0000,  0.0000)
   3 O      9.466184    5.458135    6.243521    ( 0.0000,  0.0000,  0.0000)
   4 H      7.466040    6.229633    4.057283    ( 0.0000,  0.0000,  0.0000)
   5 H      8.132017    4.877235    4.764881    ( 0.0000,  0.0000,  0.0000)
   6 H      6.697611    7.046788    6.038392    ( 0.0000,  0.0000,  0.0000)
   7 C      6.220703    5.143924    6.952680    ( 0.0000,  0.0000,  0.0000)
   8 S      4.600866    4.787746    6.173621    ( 0.0000,  0.0000,  0.0000)
   9 H      6.063040    5.584212    7.942717    ( 0.0000,  0.0000,  0.0000)
  10 H      6.674846    4.153212    7.087175    ( 0.0000,  0.0000,  0.0000)
  11 H      4.133816    6.059638    6.170556    ( 0.0000,  0.0000,  0.0000)
  12 O      8.643107    6.897546    7.789501    ( 0.0000,  0.0000,  0.0000)
  13 H      6.454178    4.973107    4.459260    ( 0.0000,  0.0000,  0.0000)

Unit cell:
           periodic     x           y           z      points  spacing
  1. axis:    no    13.600000    0.000000    0.000000    68     0.2000
  2. axis:    no     0.000000   11.200000    0.000000    56     0.2000
  3. axis:    no     0.000000    0.000000   12.000000    60     0.2000

  Lengths:  13.600000  11.200000  12.000000
  Angles:   90.000000  90.000000  90.000000

Effective grid spacing dv^(1/3) = 0.2000

     iter     time        total  log10-change:
                         energy   eigst   dens
iter:   1 21:41:02   -85.282064
iter:   2 21:41:02   -80.511401   +0.54  -0.75
iter:   3 21:41:03   -79.309428   +0.45  -0.94
iter:   4 21:41:04   -79.119411   -0.25  -1.16
iter:   5 21:41:05   -79.124827   -0.75  -1.60
iter:   6 21:41:05   -79.120344c  -1.23  -2.05
iter:   7 21:41:06   -79.118578c  -1.96  -2.35
iter:   8 21:41:06   -79.118072c  -2.39  -2.59
iter:   9 21:41:06   -79.117525c  -2.97  -3.04
iter:  10 21:41:07   -79.117769c  -3.27  -3.22
iter:  11 21:41:07   -79.118180c  -3.79  -3.62
iter:  12 21:41:07   -79.117973c  -4.12  -3.84
iter:  13 21:41:08   -79.117876c  -4.44  -4.01c
iter:  14 21:41:08   -79.118011c  -4.84  -4.40c
iter:  15 21:41:08   -79.118016c  -5.16  -4.55c
iter:  16 21:41:09   -79.117793c  -5.50  -4.82c
iter:  17 21:41:09   -79.117849c  -5.80  -4.98c
iter:  18 21:41:09   -79.117961c  -6.16  -5.36c
iter:  19 21:41:09   -79.117947c  -6.45  -5.44c
iter:  20 21:41:10   -79.117929c  -6.80  -5.54c
iter:  21 21:41:10   -79.117929c  -7.28  -6.04c
iter:  22 21:41:10   -79.117925c  -7.56c -6.08c

Converged after 22 iterations.

Dipole moment: (-1.481887, -0.320745, -1.519386) |e|*Ang

Energy contributions relative to reference atoms: (reference = -19591.361486)

Kinetic:        +80.127799
Potential:      -89.693078
External:        +0.015194
XC:             -72.210424
Entropy (-ST):   +0.000000
Local:           +2.459722
Interactions  
 surf:           +0.182861
--------------------------
Free energy:    -79.117925
Extrapolated:   -79.117925

Solvation cavity surface area: 159.22601
Solvation cavity volume: 161.55544
 Band  Eigenvalues  Occupancy
    0    -25.86232    2.00000
    1    -25.05540    2.00000
    2    -23.10418    2.00000
    3    -20.61599    2.00000
    4    -18.43962    2.00000
    5    -16.07219    2.00000
    6    -15.03450    2.00000
    7    -14.87958    2.00000
    8    -13.18382    2.00000
    9    -12.37770    2.00000
   10    -11.14616    2.00000
   11    -10.90179    2.00000
   12    -10.39751    2.00000
   13     -9.64180    2.00000
   14     -9.33259    2.00000
   15     -9.12140    2.00000
   16     -8.65906    2.00000
   17     -6.65370    2.00000
   18     -5.80108    2.00000
   19     -5.62685    2.00000
   20     -5.13129    2.00000
   21     -1.46170    0.00000
   22     -1.13052    0.00000
   23     -0.62951    0.00000
   24     -0.28318    0.00000
   25      0.06088    0.00000
   26      0.34349    0.00000
   27      0.53981    0.00000
   28      0.87946    0.00000
   29      0.88193    0.00000

Fermi level: -3.29650

Gap: 3.670 eV
Transition (v -> c):
  (s=0, k=0, n=20, [0.00, 0.00, 0.00]) -> (s=0, k=0, n=21, [0.00, 0.00, 0.00])
Input parameters:
  external: None

Initialize ...

species:
  N:
    name: Nitrogen
    id: f7500608b86eaa90eef8b1d9a670dc53
    Z: 7.0
    valence: 5
    core: 2
    charge: 0.0
    file: /home/fr/fr_fr/fr_ez1021/source/gpaw-setups/gpaw-setups-0.9.20000/N.PBE.gz
    compensation charges: {type: gauss,
                           rc: 0.18,
                           lmax: 2}
    cutoffs: {filter: 1.11,
              core: 0.96}
    valence states:
      #              energy  rcut
      - 2s(2.00)   -18.583   0.603
      - 2p(3.00)    -7.089   0.529
      -  s           8.629   0.603
      -  p          20.123   0.529
      -  d           0.000   0.577
  
    # Using partial waves for N as LCAO basis

  C:
    name: Carbon
    id: 4aa54d4b901d75f77cc0ea3eec22967b
    Z: 6.0
    valence: 4
    core: 2
    charge: 0.0
    file: /home/fr/fr_fr/fr_ez1021/source/gpaw-setups/gpaw-setups-0.9.20000/C.PBE.gz
    compensation charges: {type: gauss,
                           rc: 0.20,
                           lmax: 2}
    cutoffs: {filter: 1.14,
              core: 1.14}
    valence states:
      #              energy  rcut
      - 2s(2.00)   -13.751   0.635
      - 2p(2.00)    -5.284   0.635
      -  s          13.461   0.635
      -  p          21.927   0.635
      -  d           0.000   0.635
  
    # Using partial waves for C as LCAO basis

  O:
    name: Oxygen
    id: 32ecd46bf208036f09c70b0ec9a88b78
    Z: 8.0
    valence: 6
    core: 2
    charge: 0.0
    file: /home/fr/fr_fr/fr_ez1021/source/gpaw-setups/gpaw-setups-0.9.20000/O.PBE.gz
    compensation charges: {type: gauss,
                           rc: 0.21,
                           lmax: 2}
    cutoffs: {filter: 1.17,
              core: 0.83}
    valence states:
      #              energy  rcut
      - 2s(2.00)   -23.961   0.688
      - 2p(4.00)    -9.029   0.598
      -  s           3.251   0.688
      -  p          18.182   0.598
      -  d           0.000   0.619
  
    # Using partial waves for O as LCAO basis

  H:
    name: Hydrogen
    id: d65de229564ff8ea4db303e23b6d1ecf
    Z: 1.0
    valence: 1
    core: 0
    charge: 0.0
    file: /home/fr/fr_fr/fr_ez1021/source/gpaw-setups/gpaw-setups-0.9.20000/H.PBE.gz
    compensation charges: {type: gauss,
                           rc: 0.15,
                           lmax: 2}
    cutoffs: {filter: 0.85,
              core: 0.53}
    valence states:
      #              energy  rcut
      - 1s(1.00)    -6.494   0.476
      -  s          20.717   0.476
      -  p           0.000   0.476
  
    # Using partial waves for H as LCAO basis

  S:
    name: Sulfur
    id: ca434db9faa07220b7a1d8cb6886b7a9
    Z: 16.0
    valence: 6
    core: 10
    charge: 0.0
    file: /home/fr/fr_fr/fr_ez1021/source/gpaw-setups/gpaw-setups-0.9.20000/S.PBE.gz
    compensation charges: {type: gauss,
                           rc: 0.24,
                           lmax: 2}
    cutoffs: {filter: 1.77,
              core: 1.66}
    valence states:
      #              energy  rcut
      - 3s(2.00)   -17.254   0.974
      - 3p(4.00)    -7.008   0.979
      -  s           9.957   0.974
      -  p          20.203   0.979
      -  d           0.000   0.900
  
    # Using partial waves for S as LCAO basis

Reference energy: -19591.361486  # eV

Spin-paired calculation

Convergence criteria:
 Maximum [total energy] change in last 3 cyles: 0.0005 eV / valence electron
 Maximum integral of absolute [dens]ity change: 0.0001 electrons / valence electron
 Maximum integral of absolute [eigenst]ate change: 4e-08 eV^2 / valence electron
 Maximum number of scf [iter]ations: 333
 (Square brackets indicate name in SCF output, whereas a 'c' in
 the SCF output indicates the quantity has converged.)

Symmetries present (total): 1

  ( 1  0  0)
  ( 0  1  0)
  ( 0  0  1)

1 k-point (Gamma)
1 k-point in the irreducible part of the Brillouin zone
       k-points in crystal coordinates                weights
   0:     0.00000000    0.00000000    0.00000000          1/1

Wave functions: Uniform real-space grid
  Kinetic energy operator: 6*3+1=19 point O(h^6) finite-difference Laplacian
  ScaLapack parameters: grid=1x1, blocksize=None
  Wavefunction extrapolation:
    Improved wavefunction reuse through dual PAW basis 

Occupation numbers: # Zero width 

Eigensolver
   Davidson(niter=2) 

Densities:
  Coarse grid: 68*56*60 grid
  Fine grid: 136*112*120 grid
  Total Charge: 0.000000 

Density mixing:
  Method: separate
  Backend: pulay
  Linear mixing parameter: 0.25
  old densities: 3
  Damping of long wavelength oscillations: 1  # (no daming) 

Hamiltonian:
  XC and Coulomb potentials evaluated on a 136*112*120 grid
  Using the PBE Exchange-Correlation functional
  Interpolation: tri-quintic (5. degree polynomial)
  Poisson solver: Jacobi weighted FD solver with dielectric and 4 multi-grid levels
    Coarsest grid: 17 x 14 x 15 points
    Stencil: Weighted Finite Difference Operator
      6*3+1=19 point O(h^6) finite-difference Laplacian
      Finite-difference x-derivative with O(h^6) error (6 points)
      Finite-difference y-derivative with O(h^6) error (6 points)
      Finite-difference z-derivative with O(h^6) error (6 points)
    Max iterations: 1000
    Tolerance: 2.000000e-10

  Solvation:
    Cavity:  EffectivePotentialCavity
      Surface Calculator: GradientSurface with 3 nn
      Volume Calculator: KB51Volume
        compressibility: 72.57860092224
        temperature:     298.15
      EffectivePotentialCavity
        Potential: Power12Potential
          u0: 0.18eV
          pbc_cutoff: 1e-06
          tiny: 1e-10
        temperature: 298.15K    Dielectric:
      Type: LinearDielectric
      Solvent dielectric constant: 1.77    Interaction: SurfaceInteraction
      subscript: surf
      Surface_tension: 0.0011484376791625194 eV/(Angstrom^2)
XC parameters: PBE with 2 nearest neighbor stencil

Memory estimate:
  Process memory now: 233.05 MiB
  Calculator: 35.84 MiB
    Density: 3.70 MiB
      Arrays: 2.64 MiB
      Localized functions: 0.48 MiB
      Mixer: 0.57 MiB
    Hamiltonian: 25.80 MiB
      Arrays: 1.73 MiB
      XC: 0.00 MiB
      Poisson: 1.98 MiB
      vbar: 0.04 MiB
      Solvation: 22.06 MiB
    Wavefunctions: 6.34 MiB
      Arrays psit_nG: 2.87 MiB
      Eigensolver: 3.41 MiB
      Projections: 0.00 MiB
      Projectors: 0.05 MiB

Total number of cores used: 16
Domain decomposition: 4 x 2 x 2

Number of atoms: 14
Number of atomic orbitals: 35
Number of bands in calculation: 30
Number of valence electrons: 42
Bands to converge: occupied

... initialized

Initializing position-dependent things.

Solvation position-dependent initialization:
  Atomic radii for Power12Potential:
    Type    Radius   No. of atoms
       H     1.090     7
       O     1.520     2
       N     1.550     1
       C     1.700     3
       S     1.800     1

Density initialized from atomic densities
Creating initial wave functions:
  30 bands from LCAO basis set

        .--------------------------------.  
       /|                                |  
      / |                                |  
     /  |                                |  
    /   |                                |  
   /    |                                |  
  /     |                                |  
 *      |                                |  
 |      |                 O              |  
 |      |          H                     |  
 |      |      H   C  H   C              |  
 |      |      S    H C    O             |  
 |      |                                |  
 |      |           H NHH                |  
 |      |                                |  
 |      .--------------------------------.  
 |     /                                /   
 |    /                                /    
 |   /                                /     
 |  /                                /      
 | /                                /       
 |/                                /        
 *--------------------------------*         

Positions:
   0 N      7.298468    5.491675    4.750711    ( 0.0000,  0.0000,  0.0000)
   1 C      7.138215    6.048440    6.126043    ( 0.0000,  0.0000,  0.0000)
   2 C      8.553590    6.152034    6.779260    ( 0.0000,  0.0000,  0.0000)
   3 O      9.466184    5.458135    6.243521    ( 0.0000,  0.0000,  0.0000)
   4 H      7.466040    6.229633    4.057283    ( 0.0000,  0.0000,  0.0000)
   5 H      8.132017    4.877235    4.764881    ( 0.0000,  0.0000,  0.0000)
   6 H      6.697611    7.046788    6.038392    ( 0.0000,  0.0000,  0.0000)
   7 C      6.220703    5.143924    6.952680    ( 0.0000,  0.0000,  0.0000)
   8 S      4.600866    4.787746    6.173621    ( 0.0000,  0.0000,  0.0000)
   9 H      6.063040    5.584212    7.942717    ( 0.0000,  0.0000,  0.0000)
  10 H      6.674846    4.153212    7.087175    ( 0.0000,  0.0000,  0.0000)
  11 H      4.133816    6.059638    6.170556    ( 0.0000,  0.0000,  0.0000)
  12 O      8.643107    6.897546    7.789501    ( 0.0000,  0.0000,  0.0000)
  13 H      6.454178    4.973107    4.459260    ( 0.0000,  0.0000,  0.0000)

Unit cell:
           periodic     x           y           z      points  spacing
  1. axis:    no    13.600000    0.000000    0.000000    68     0.2000
  2. axis:    no     0.000000   11.200000    0.000000    56     0.2000
  3. axis:    no     0.000000    0.000000   12.000000    60     0.2000

  Lengths:  13.600000  11.200000  12.000000
  Angles:   90.000000  90.000000  90.000000

Effective grid spacing dv^(1/3) = 0.2000

     iter     time        total  log10-change:
                         energy   eigst   dens
iter:   1 21:41:12   -85.304362
iter:   2 21:41:13   -80.528469   +0.54  -0.74
iter:   3 21:41:14   -79.324832   +0.45  -0.94
iter:   4 21:41:15   -79.134648   -0.25  -1.16
iter:   5 21:41:15   -79.140081   -0.75  -1.60
iter:   6 21:41:16   -79.135589c  -1.23  -2.05
iter:   7 21:41:16   -79.133821c  -1.96  -2.35
iter:   8 21:41:17   -79.133313c  -2.39  -2.59
iter:   9 21:41:17   -79.132768c  -2.97  -3.04
iter:  10 21:41:17   -79.133011c  -3.27  -3.22
iter:  11 21:41:18   -79.133422c  -3.80  -3.62
iter:  12 21:41:18   -79.133215c  -4.12  -3.84
iter:  13 21:41:18   -79.133119c  -4.44  -4.01c
iter:  14 21:41:19   -79.133252c  -4.84  -4.40c
iter:  15 21:41:19   -79.133257c  -5.16  -4.55c
iter:  16 21:41:19   -79.133035c  -5.51  -4.82c
iter:  17 21:41:19   -79.133089c  -5.80  -4.98c
iter:  18 21:41:20   -79.133202c  -6.16  -5.36c
iter:  19 21:41:20   -79.133188c  -6.45  -5.45c
iter:  20 21:41:20   -79.133171c  -6.80  -5.54c
iter:  21 21:41:20   -79.133170c  -7.28  -6.05c
iter:  22 21:41:21   -79.133166c  -7.57c -6.09c

Converged after 22 iterations.

Dipole moment: (-1.482371, -0.321750, -1.528877) |e|*Ang

Energy contributions relative to reference atoms: (reference = -19591.361486)

Kinetic:        +80.122912
Potential:      -89.686207
External:        +0.000000
XC:             -72.212525
Entropy (-ST):   +0.000000
Local:           +2.459793
Interactions  
 surf:           +0.182861
--------------------------
Free energy:    -79.133166
Extrapolated:   -79.133166

Solvation cavity surface area: 159.22601
Solvation cavity volume: 161.55544
 Band  Eigenvalues  Occupancy
    0    -25.86161    2.00000
    1    -25.05750    2.00000
    2    -23.11091    2.00000
    3    -20.61931    2.00000
    4    -18.44108    2.00000
    5    -16.07483    2.00000
    6    -15.03035    2.00000
    7    -14.87460    2.00000
    8    -13.18441    2.00000
    9    -12.38088    2.00000
   10    -11.14888    2.00000
   11    -10.90670    2.00000
   12    -10.40279    2.00000
   13     -9.64739    2.00000
   14     -9.33994    2.00000
   15     -9.12595    2.00000
   16     -8.66323    2.00000
   17     -6.65613    2.00000
   18     -5.80832    2.00000
   19     -5.63122    2.00000
   20     -5.13997    2.00000
   21     -1.45669    0.00000
   22     -1.12368    0.00000
   23     -0.62810    0.00000
   24     -0.27666    0.00000
   25      0.06337    0.00000
   26      0.33750    0.00000
   27      0.53746    0.00000
   28      0.87468    0.00000
   29      0.88100    0.00000

Fermi level: -3.29833

Gap: 3.683 eV
Transition (v -> c):
  (s=0, k=0, n=20, [0.00, 0.00, 0.00]) -> (s=0, k=0, n=21, [0.00, 0.00, 0.00])
Input parameters:
  external: {direction: [1. 0. 0.],
             name: ConstantElectricField,
             strength: 0.01169603524229075}

Initialize ...

species:
  N:
    name: Nitrogen
    id: f7500608b86eaa90eef8b1d9a670dc53
    Z: 7.0
    valence: 5
    core: 2
    charge: 0.0
    file: /home/fr/fr_fr/fr_ez1021/source/gpaw-setups/gpaw-setups-0.9.20000/N.PBE.gz
    compensation charges: {type: gauss,
                           rc: 0.18,
                           lmax: 2}
    cutoffs: {filter: 1.11,
              core: 0.96}
    valence states:
      #              energy  rcut
      - 2s(2.00)   -18.583   0.603
      - 2p(3.00)    -7.089   0.529
      -  s           8.629   0.603
      -  p          20.123   0.529
      -  d           0.000   0.577
  
    # Using partial waves for N as LCAO basis

  C:
    name: Carbon
    id: 4aa54d4b901d75f77cc0ea3eec22967b
    Z: 6.0
    valence: 4
    core: 2
    charge: 0.0
    file: /home/fr/fr_fr/fr_ez1021/source/gpaw-setups/gpaw-setups-0.9.20000/C.PBE.gz
    compensation charges: {type: gauss,
                           rc: 0.20,
                           lmax: 2}
    cutoffs: {filter: 1.14,
              core: 1.14}
    valence states:
      #              energy  rcut
      - 2s(2.00)   -13.751   0.635
      - 2p(2.00)    -5.284   0.635
      -  s          13.461   0.635
      -  p          21.927   0.635
      -  d           0.000   0.635
  
    # Using partial waves for C as LCAO basis

  O:
    name: Oxygen
    id: 32ecd46bf208036f09c70b0ec9a88b78
    Z: 8.0
    valence: 6
    core: 2
    charge: 0.0
    file: /home/fr/fr_fr/fr_ez1021/source/gpaw-setups/gpaw-setups-0.9.20000/O.PBE.gz
    compensation charges: {type: gauss,
                           rc: 0.21,
                           lmax: 2}
    cutoffs: {filter: 1.17,
              core: 0.83}
    valence states:
      #              energy  rcut
      - 2s(2.00)   -23.961   0.688
      - 2p(4.00)    -9.029   0.598
      -  s           3.251   0.688
      -  p          18.182   0.598
      -  d           0.000   0.619
  
    # Using partial waves for O as LCAO basis

  H:
    name: Hydrogen
    id: d65de229564ff8ea4db303e23b6d1ecf
    Z: 1.0
    valence: 1
    core: 0
    charge: 0.0
    file: /home/fr/fr_fr/fr_ez1021/source/gpaw-setups/gpaw-setups-0.9.20000/H.PBE.gz
    compensation charges: {type: gauss,
                           rc: 0.15,
                           lmax: 2}
    cutoffs: {filter: 0.85,
              core: 0.53}
    valence states:
      #              energy  rcut
      - 1s(1.00)    -6.494   0.476
      -  s          20.717   0.476
      -  p           0.000   0.476
  
    # Using partial waves for H as LCAO basis

  S:
    name: Sulfur
    id: ca434db9faa07220b7a1d8cb6886b7a9
    Z: 16.0
    valence: 6
    core: 10
    charge: 0.0
    file: /home/fr/fr_fr/fr_ez1021/source/gpaw-setups/gpaw-setups-0.9.20000/S.PBE.gz
    compensation charges: {type: gauss,
                           rc: 0.24,
                           lmax: 2}
    cutoffs: {filter: 1.77,
              core: 1.66}
    valence states:
      #              energy  rcut
      - 3s(2.00)   -17.254   0.974
      - 3p(4.00)    -7.008   0.979
      -  s           9.957   0.974
      -  p          20.203   0.979
      -  d           0.000   0.900
  
    # Using partial waves for S as LCAO basis

Reference energy: -19591.361486  # eV

Spin-paired calculation

Convergence criteria:
 Maximum [total energy] change in last 3 cyles: 0.0005 eV / valence electron
 Maximum integral of absolute [dens]ity change: 0.0001 electrons / valence electron
 Maximum integral of absolute [eigenst]ate change: 4e-08 eV^2 / valence electron
 Maximum number of scf [iter]ations: 333
 (Square brackets indicate name in SCF output, whereas a 'c' in
 the SCF output indicates the quantity has converged.)

Symmetries present (total): 1

  ( 1  0  0)
  ( 0  1  0)
  ( 0  0  1)

1 k-point (Gamma)
1 k-point in the irreducible part of the Brillouin zone
       k-points in crystal coordinates                weights
   0:     0.00000000    0.00000000    0.00000000          1/1

Wave functions: Uniform real-space grid
  Kinetic energy operator: 6*3+1=19 point O(h^6) finite-difference Laplacian
  ScaLapack parameters: grid=1x1, blocksize=None
  Wavefunction extrapolation:
    Improved wavefunction reuse through dual PAW basis 

Occupation numbers: # Zero width 

Eigensolver
   Davidson(niter=2) 

Densities:
  Coarse grid: 68*56*60 grid
  Fine grid: 136*112*120 grid
  Total Charge: 0.000000 

Density mixing:
  Method: separate
  Backend: pulay
  Linear mixing parameter: 0.25
  old densities: 3
  Damping of long wavelength oscillations: 1  # (no daming) 

Hamiltonian:
  XC and Coulomb potentials evaluated on a 136*112*120 grid
  Using the PBE Exchange-Correlation functional
  External potential:
    Constant electric field: (0.012, 0.000, 0.000) V/Ang
  Interpolation: tri-quintic (5. degree polynomial)
  Poisson solver: Jacobi weighted FD solver with dielectric and 4 multi-grid levels
    Coarsest grid: 17 x 14 x 15 points
    Stencil: Weighted Finite Difference Operator
      6*3+1=19 point O(h^6) finite-difference Laplacian
      Finite-difference x-derivative with O(h^6) error (6 points)
      Finite-difference y-derivative with O(h^6) error (6 points)
      Finite-difference z-derivative with O(h^6) error (6 points)
    Max iterations: 1000
    Tolerance: 2.000000e-10

  Solvation:
    Cavity:  EffectivePotentialCavity
      Surface Calculator: GradientSurface with 3 nn
      Volume Calculator: KB51Volume
        compressibility: 72.57860092224
        temperature:     298.15
      EffectivePotentialCavity
        Potential: Power12Potential
          u0: 0.18eV
          pbc_cutoff: 1e-06
          tiny: 1e-10
        temperature: 298.15K    Dielectric:
      Type: LinearDielectric
      Solvent dielectric constant: 1.77    Interaction: SurfaceInteraction
      subscript: surf
      Surface_tension: 0.0011484376791625194 eV/(Angstrom^2)
XC parameters: PBE with 2 nearest neighbor stencil

Memory estimate:
  Process memory now: 233.05 MiB
  Calculator: 35.84 MiB
    Density: 3.70 MiB
      Arrays: 2.64 MiB
      Localized functions: 0.48 MiB
      Mixer: 0.57 MiB
    Hamiltonian: 25.80 MiB
      Arrays: 1.73 MiB
      XC: 0.00 MiB
      Poisson: 1.98 MiB
      vbar: 0.04 MiB
      Solvation: 22.06 MiB
    Wavefunctions: 6.34 MiB
      Arrays psit_nG: 2.87 MiB
      Eigensolver: 3.41 MiB
      Projections: 0.00 MiB
      Projectors: 0.05 MiB

Total number of cores used: 16
Domain decomposition: 4 x 2 x 2

Number of atoms: 14
Number of atomic orbitals: 35
Number of bands in calculation: 30
Number of valence electrons: 42
Bands to converge: occupied

... initialized

Initializing position-dependent things.

Solvation position-dependent initialization:
  Atomic radii for Power12Potential:
    Type    Radius   No. of atoms
       H     1.090     7
       O     1.520     2
       N     1.550     1
       C     1.700     3
       S     1.800     1

Density initialized from atomic densities
Creating initial wave functions:
  30 bands from LCAO basis set

        .--------------------------------.  
       /|                                |  
      / |                                |  
     /  |                                |  
    /   |                                |  
   /    |                                |  
  /     |                                |  
 *      |                                |  
 |      |                 O              |  
 |      |          H                     |  
 |      |      H   C  H   C              |  
 |      |      S    H C    O             |  
 |      |                                |  
 |      |           H NHH                |  
 |      |                                |  
 |      .--------------------------------.  
 |     /                                /   
 |    /                                /    
 |   /                                /     
 |  /                                /      
 | /                                /       
 |/                                /        
 *--------------------------------*         

Positions:
   0 N      7.298468    5.491675    4.750711    ( 0.0000,  0.0000,  0.0000)
   1 C      7.138215    6.048440    6.126043    ( 0.0000,  0.0000,  0.0000)
   2 C      8.553590    6.152034    6.779260    ( 0.0000,  0.0000,  0.0000)
   3 O      9.466184    5.458135    6.243521    ( 0.0000,  0.0000,  0.0000)
   4 H      7.466040    6.229633    4.057283    ( 0.0000,  0.0000,  0.0000)
   5 H      8.132017    4.877235    4.764881    ( 0.0000,  0.0000,  0.0000)
   6 H      6.697611    7.046788    6.038392    ( 0.0000,  0.0000,  0.0000)
   7 C      6.220703    5.143924    6.952680    ( 0.0000,  0.0000,  0.0000)
   8 S      4.600866    4.787746    6.173621    ( 0.0000,  0.0000,  0.0000)
   9 H      6.063040    5.584212    7.942717    ( 0.0000,  0.0000,  0.0000)
  10 H      6.674846    4.153212    7.087175    ( 0.0000,  0.0000,  0.0000)
  11 H      4.133816    6.059638    6.170556    ( 0.0000,  0.0000,  0.0000)
  12 O      8.643107    6.897546    7.789501    ( 0.0000,  0.0000,  0.0000)
  13 H      6.454178    4.973107    4.459260    ( 0.0000,  0.0000,  0.0000)

Unit cell:
           periodic     x           y           z      points  spacing
  1. axis:    no    13.600000    0.000000    0.000000    68     0.2000
  2. axis:    no     0.000000   11.200000    0.000000    56     0.2000
  3. axis:    no     0.000000    0.000000   12.000000    60     0.2000

  Lengths:  13.600000  11.200000  12.000000
  Angles:   90.000000  90.000000  90.000000

Effective grid spacing dv^(1/3) = 0.2000

     iter     time        total  log10-change:
                         energy   eigst   dens
iter:   1 21:41:23   -85.277846
iter:   2 21:41:24   -80.509771   +0.54  -0.75
iter:   3 21:41:25   -79.307126   +0.45  -0.94
iter:   4 21:41:25   -79.117377   -0.25  -1.16
iter:   5 21:41:26   -79.122819   -0.75  -1.60
iter:   6 21:41:27   -79.118323c  -1.23  -2.05
iter:   7 21:41:27   -79.116559c  -1.96  -2.35
iter:   8 21:41:27   -79.116053c  -2.39  -2.59
iter:   9 21:41:28   -79.115511c  -2.97  -3.04
iter:  10 21:41:28   -79.115754c  -3.27  -3.22
iter:  11 21:41:29   -79.116162c  -3.79  -3.62
iter:  12 21:41:29   -79.115957c  -4.12  -3.84
iter:  13 21:41:29   -79.115861c  -4.44  -4.01c
iter:  14 21:41:29   -79.115995c  -4.83  -4.40c
iter:  15 21:41:30   -79.115999c  -5.16  -4.55c
iter:  16 21:41:30   -79.115778c  -5.50  -4.82c
iter:  17 21:41:30   -79.115832c  -5.79  -4.98c
iter:  18 21:41:30   -79.115944c  -6.16  -5.36c
iter:  19 21:41:31   -79.115931c  -6.45  -5.44c
iter:  20 21:41:31   -79.115914c  -6.80  -5.54c
iter:  21 21:41:31   -79.115912c  -7.27  -6.05c
iter:  22 21:41:31   -79.115908c  -7.55c -6.08c

Converged after 22 iterations.

Dipole moment: (-1.468622, -0.321022, -1.528311) |e|*Ang

Energy contributions relative to reference atoms: (reference = -19591.361486)

Kinetic:        +80.126682
Potential:      -89.693142
External:        +0.017177
XC:             -72.209113
Entropy (-ST):   +0.000000
Local:           +2.459627
Interactions  
 surf:           +0.182861
--------------------------
Free energy:    -79.115908
Extrapolated:   -79.115908

Solvation cavity surface area: 159.22601
Solvation cavity volume: 161.55544
 Band  Eigenvalues  Occupancy
    0    -25.85290    2.00000
    1    -25.04541    2.00000
    2    -23.09411    2.00000
    3    -20.62732    2.00000
    4    -18.44618    2.00000
    5    -16.07995    2.00000
    6    -15.02610    2.00000
    7    -14.87211    2.00000
    8    -13.18079    2.00000
    9    -12.37767    2.00000
   10    -11.15529    2.00000
   11    -10.90925    2.00000
   12    -10.39331    2.00000
   13     -9.64761    2.00000
   14     -9.32510    2.00000
   15     -9.12280    2.00000
   16     -8.66508    2.00000
   17     -6.67177    2.00000
   18     -5.79034    2.00000
   19     -5.61567    2.00000
   20     -5.12380    2.00000
   21     -1.46583    0.00000
   22     -1.13024    0.00000
   23     -0.64566    0.00000
   24     -0.27758    0.00000
   25      0.06389    0.00000
   26      0.33868    0.00000
   27      0.53220    0.00000
   28      0.87094    0.00000
   29      0.87466    0.00000

Fermi level: -3.29482

Gap: 3.658 eV
Transition (v -> c):
  (s=0, k=0, n=20, [0.00, 0.00, 0.00]) -> (s=0, k=0, n=21, [0.00, 0.00, 0.00])
Input parameters:
  external: {direction: [0. 1. 0.],
             name: ConstantElectricField,
             strength: 0.01169603524229075}

Initialize ...

species:
  N:
    name: Nitrogen
    id: f7500608b86eaa90eef8b1d9a670dc53
    Z: 7.0
    valence: 5
    core: 2
    charge: 0.0
    file: /home/fr/fr_fr/fr_ez1021/source/gpaw-setups/gpaw-setups-0.9.20000/N.PBE.gz
    compensation charges: {type: gauss,
                           rc: 0.18,
                           lmax: 2}
    cutoffs: {filter: 1.11,
              core: 0.96}
    valence states:
      #              energy  rcut
      - 2s(2.00)   -18.583   0.603
      - 2p(3.00)    -7.089   0.529
      -  s           8.629   0.603
      -  p          20.123   0.529
      -  d           0.000   0.577
  
    # Using partial waves for N as LCAO basis

  C:
    name: Carbon
    id: 4aa54d4b901d75f77cc0ea3eec22967b
    Z: 6.0
    valence: 4
    core: 2
    charge: 0.0
    file: /home/fr/fr_fr/fr_ez1021/source/gpaw-setups/gpaw-setups-0.9.20000/C.PBE.gz
    compensation charges: {type: gauss,
                           rc: 0.20,
                           lmax: 2}
    cutoffs: {filter: 1.14,
              core: 1.14}
    valence states:
      #              energy  rcut
      - 2s(2.00)   -13.751   0.635
      - 2p(2.00)    -5.284   0.635
      -  s          13.461   0.635
      -  p          21.927   0.635
      -  d           0.000   0.635
  
    # Using partial waves for C as LCAO basis

  O:
    name: Oxygen
    id: 32ecd46bf208036f09c70b0ec9a88b78
    Z: 8.0
    valence: 6
    core: 2
    charge: 0.0
    file: /home/fr/fr_fr/fr_ez1021/source/gpaw-setups/gpaw-setups-0.9.20000/O.PBE.gz
    compensation charges: {type: gauss,
                           rc: 0.21,
                           lmax: 2}
    cutoffs: {filter: 1.17,
              core: 0.83}
    valence states:
      #              energy  rcut
      - 2s(2.00)   -23.961   0.688
      - 2p(4.00)    -9.029   0.598
      -  s           3.251   0.688
      -  p          18.182   0.598
      -  d           0.000   0.619
  
    # Using partial waves for O as LCAO basis

  H:
    name: Hydrogen
    id: d65de229564ff8ea4db303e23b6d1ecf
    Z: 1.0
    valence: 1
    core: 0
    charge: 0.0
    file: /home/fr/fr_fr/fr_ez1021/source/gpaw-setups/gpaw-setups-0.9.20000/H.PBE.gz
    compensation charges: {type: gauss,
                           rc: 0.15,
                           lmax: 2}
    cutoffs: {filter: 0.85,
              core: 0.53}
    valence states:
      #              energy  rcut
      - 1s(1.00)    -6.494   0.476
      -  s          20.717   0.476
      -  p           0.000   0.476
  
    # Using partial waves for H as LCAO basis

  S:
    name: Sulfur
    id: ca434db9faa07220b7a1d8cb6886b7a9
    Z: 16.0
    valence: 6
    core: 10
    charge: 0.0
    file: /home/fr/fr_fr/fr_ez1021/source/gpaw-setups/gpaw-setups-0.9.20000/S.PBE.gz
    compensation charges: {type: gauss,
                           rc: 0.24,
                           lmax: 2}
    cutoffs: {filter: 1.77,
              core: 1.66}
    valence states:
      #              energy  rcut
      - 3s(2.00)   -17.254   0.974
      - 3p(4.00)    -7.008   0.979
      -  s           9.957   0.974
      -  p          20.203   0.979
      -  d           0.000   0.900
  
    # Using partial waves for S as LCAO basis

Reference energy: -19591.361486  # eV

Spin-paired calculation

Convergence criteria:
 Maximum [total energy] change in last 3 cyles: 0.0005 eV / valence electron
 Maximum integral of absolute [dens]ity change: 0.0001 electrons / valence electron
 Maximum integral of absolute [eigenst]ate change: 4e-08 eV^2 / valence electron
 Maximum number of scf [iter]ations: 333
 (Square brackets indicate name in SCF output, whereas a 'c' in
 the SCF output indicates the quantity has converged.)

Symmetries present (total): 1

  ( 1  0  0)
  ( 0  1  0)
  ( 0  0  1)

1 k-point (Gamma)
1 k-point in the irreducible part of the Brillouin zone
       k-points in crystal coordinates                weights
   0:     0.00000000    0.00000000    0.00000000          1/1

Wave functions: Uniform real-space grid
  Kinetic energy operator: 6*3+1=19 point O(h^6) finite-difference Laplacian
  ScaLapack parameters: grid=1x1, blocksize=None
  Wavefunction extrapolation:
    Improved wavefunction reuse through dual PAW basis 

Occupation numbers: # Zero width 

Eigensolver
   Davidson(niter=2) 

Densities:
  Coarse grid: 68*56*60 grid
[...]
   5 H      8.132017    4.877235    4.764881    ( 0.0000,  0.0000,  0.0000)
   6 H      6.697611    7.046788    6.038392    ( 0.0000,  0.0000,  0.0000)
   7 C      6.220703    5.143924    6.952680    ( 0.0000,  0.0000,  0.0000)
   8 S      4.600866    4.787746    6.173621    ( 0.0000,  0.0000,  0.0000)
   9 H      6.063040    5.584212    7.942717    ( 0.0000,  0.0000,  0.0000)
  10 H      6.674846    4.153212    7.087175    ( 0.0000,  0.0000,  0.0000)
  11 H      4.133816    6.059638    6.170556    ( 0.0000,  0.0000,  0.0000)
  12 O      8.643107    6.897546    7.789501    ( 0.0000,  0.0000,  0.0000)
  13 H      6.454178    4.973107    4.459260    ( 0.0000,  0.0000,  0.0000)

Unit cell:
           periodic     x           y           z      points  spacing
  1. axis:    no    13.600000    0.000000    0.000000    68     0.2000
  2. axis:    no     0.000000   11.200000    0.000000    56     0.2000
  3. axis:    no     0.000000    0.000000   12.000000    60     0.2000

  Lengths:  13.600000  11.200000  12.000000
  Angles:   90.000000  90.000000  90.000000

Effective grid spacing dv^(1/3) = 0.2000

     iter     time        total  log10-change:
                         energy   eigst   dens
iter:   1 21:46:35   -85.296360
iter:   2 21:46:36   -80.522702   +0.54  -0.74
iter:   3 21:46:36   -79.320272   +0.45  -0.94
iter:   4 21:46:37   -79.130168   -0.25  -1.16
iter:   5 21:46:38   -79.135583   -0.75  -1.60
iter:   6 21:46:38   -79.131101c  -1.23  -2.05
iter:   7 21:46:39   -79.129331c  -1.96  -2.35
iter:   8 21:46:39   -79.128822c  -2.39  -2.59
iter:   9 21:46:40   -79.128275c  -2.97  -3.04
iter:  10 21:46:40   -79.128520c  -3.27  -3.22
iter:  11 21:46:40   -79.128930c  -3.80  -3.62
iter:  12 21:46:41   -79.128725c  -4.12  -3.84
iter:  13 21:46:41   -79.128627c  -4.44  -4.01c
iter:  14 21:46:41   -79.128763c  -4.84  -4.40c
iter:  15 21:46:42   -79.128766c  -5.16  -4.55c
iter:  16 21:46:42   -79.128541c  -5.50  -4.82c
iter:  17 21:46:42   -79.128662c  -5.80  -4.98c
iter:  18 21:46:42   -79.128726c  -6.21  -5.36c
iter:  19 21:46:43   -79.128705c  -6.43  -5.43c
iter:  20 21:46:43   -79.128654c  -6.77  -5.57c
iter:  21 21:46:43   -79.128686c  -7.13  -5.81c
iter:  22 21:46:43   -79.128699c  -7.50c -5.93c

Converged after 22 iterations.

Dipole moment: (-1.481481, -0.309946, -1.527444) |e|*Ang

Energy contributions relative to reference atoms: (reference = -19591.361486)

Kinetic:        +80.123504
Potential:      -89.687736
External:        +0.004407
XC:             -72.211386
Entropy (-ST):   +0.000000
Local:           +2.459651
Interactions  
 surf:           +0.182861
--------------------------
Free energy:    -79.128699
Extrapolated:   -79.128699

Solvation cavity surface area: 159.22601
Solvation cavity volume: 161.55544
 Band  Eigenvalues  Occupancy
    0    -25.85975    2.00000
    1    -25.05400    2.00000
    2    -23.10519    2.00000
    3    -20.62309    2.00000
    4    -18.44241    2.00000
    5    -16.07751    2.00000
    6    -15.03104    2.00000
    7    -14.87418    2.00000
    8    -13.18324    2.00000
    9    -12.38063    2.00000
   10    -11.14958    2.00000
   11    -10.90879    2.00000
   12    -10.40143    2.00000
   13     -9.64787    2.00000
   14     -9.33440    2.00000
   15     -9.12552    2.00000
   16     -8.66516    2.00000
   17     -6.66273    2.00000
   18     -5.80242    2.00000
   19     -5.62909    2.00000
   20     -5.13175    2.00000
   21     -1.45641    0.00000
   22     -1.12620    0.00000
   23     -0.62759    0.00000
   24     -0.27918    0.00000
   25      0.06676    0.00000
   26      0.32798    0.00000
   27      0.53017    0.00000
   28      0.86568    0.00000
   29      0.87182    0.00000

Fermi level: -3.29408

Gap: 3.675 eV
Transition (v -> c):
  (s=0, k=0, n=20, [0.00, 0.00, 0.00]) -> (s=0, k=0, n=21, [0.00, 0.00, 0.00])
Input parameters:
  external: {direction: [0. 0. 1.],
             name: ConstantElectricField,
             strength: 0.014217770452981823}

Initialize ...

species:
  N:
    name: Nitrogen
    id: f7500608b86eaa90eef8b1d9a670dc53
    Z: 7.0
    valence: 5
    core: 2
    charge: 0.0
    file: /home/fr/fr_fr/fr_ez1021/source/gpaw-setups/gpaw-setups-0.9.20000/N.PBE.gz
    compensation charges: {type: gauss,
                           rc: 0.18,
                           lmax: 2}
    cutoffs: {filter: 1.11,
              core: 0.96}
    valence states:
      #              energy  rcut
      - 2s(2.00)   -18.583   0.603
      - 2p(3.00)    -7.089   0.529
      -  s           8.629   0.603
      -  p          20.123   0.529
      -  d           0.000   0.577
  
    # Using partial waves for N as LCAO basis

  C:
    name: Carbon
    id: 4aa54d4b901d75f77cc0ea3eec22967b
    Z: 6.0
    valence: 4
    core: 2
    charge: 0.0
    file: /home/fr/fr_fr/fr_ez1021/source/gpaw-setups/gpaw-setups-0.9.20000/C.PBE.gz
    compensation charges: {type: gauss,
                           rc: 0.20,
                           lmax: 2}
    cutoffs: {filter: 1.14,
              core: 1.14}
    valence states:
      #              energy  rcut
      - 2s(2.00)   -13.751   0.635
      - 2p(2.00)    -5.284   0.635
      -  s          13.461   0.635
      -  p          21.927   0.635
      -  d           0.000   0.635
  
    # Using partial waves for C as LCAO basis

  O:
    name: Oxygen
    id: 32ecd46bf208036f09c70b0ec9a88b78
    Z: 8.0
    valence: 6
    core: 2
    charge: 0.0
    file: /home/fr/fr_fr/fr_ez1021/source/gpaw-setups/gpaw-setups-0.9.20000/O.PBE.gz
    compensation charges: {type: gauss,
                           rc: 0.21,
                           lmax: 2}
    cutoffs: {filter: 1.17,
              core: 0.83}
    valence states:
      #              energy  rcut
      - 2s(2.00)   -23.961   0.688
      - 2p(4.00)    -9.029   0.598
      -  s           3.251   0.688
      -  p          18.182   0.598
      -  d           0.000   0.619
  
    # Using partial waves for O as LCAO basis

  H:
    name: Hydrogen
    id: d65de229564ff8ea4db303e23b6d1ecf
    Z: 1.0
    valence: 1
    core: 0
    charge: 0.0
    file: /home/fr/fr_fr/fr_ez1021/source/gpaw-setups/gpaw-setups-0.9.20000/H.PBE.gz
    compensation charges: {type: gauss,
                           rc: 0.15,
                           lmax: 2}
    cutoffs: {filter: 0.85,
              core: 0.53}
    valence states:
      #              energy  rcut
      - 1s(1.00)    -6.494   0.476
      -  s          20.717   0.476
      -  p           0.000   0.476
  
    # Using partial waves for H as LCAO basis

  S:
    name: Sulfur
    id: ca434db9faa07220b7a1d8cb6886b7a9
    Z: 16.0
    valence: 6
    core: 10
    charge: 0.0
    file: /home/fr/fr_fr/fr_ez1021/source/gpaw-setups/gpaw-setups-0.9.20000/S.PBE.gz
    compensation charges: {type: gauss,
                           rc: 0.24,
                           lmax: 2}
    cutoffs: {filter: 1.77,
              core: 1.66}
    valence states:
      #              energy  rcut
      - 3s(2.00)   -17.254   0.974
      - 3p(4.00)    -7.008   0.979
      -  s           9.957   0.974
      -  p          20.203   0.979
      -  d           0.000   0.900
  
    # Using partial waves for S as LCAO basis

Reference energy: -19591.361486  # eV

Spin-paired calculation

Convergence criteria:
 Maximum [total energy] change in last 3 cyles: 0.0005 eV / valence electron
 Maximum integral of absolute [dens]ity change: 0.0001 electrons / valence electron
 Maximum integral of absolute [eigenst]ate change: 4e-08 eV^2 / valence electron
 Maximum number of scf [iter]ations: 333
 (Square brackets indicate name in SCF output, whereas a 'c' in
 the SCF output indicates the quantity has converged.)

Symmetries present (total): 1

  ( 1  0  0)
  ( 0  1  0)
  ( 0  0  1)

1 k-point (Gamma)
1 k-point in the irreducible part of the Brillouin zone
       k-points in crystal coordinates                weights
   0:     0.00000000    0.00000000    0.00000000          1/1

Wave functions: Uniform real-space grid
  Kinetic energy operator: 6*3+1=19 point O(h^6) finite-difference Laplacian
  ScaLapack parameters: grid=1x1, blocksize=None
  Wavefunction extrapolation:
    Improved wavefunction reuse through dual PAW basis 

Occupation numbers: # Zero width 

Eigensolver
   Davidson(niter=2) 

Densities:
  Coarse grid: 68*56*60 grid
  Fine grid: 136*112*120 grid
  Total Charge: 0.000000 

Density mixing:
  Method: separate
  Backend: pulay
  Linear mixing parameter: 0.25
  old densities: 3
  Damping of long wavelength oscillations: 1  # (no daming) 

Hamiltonian:
  XC and Coulomb potentials evaluated on a 136*112*120 grid
  Using the PBE Exchange-Correlation functional
  External potential:
    Constant electric field: (0.000, 0.000, 0.014) V/Ang
  Interpolation: tri-quintic (5. degree polynomial)
  Poisson solver: Jacobi weighted FD solver with dielectric and 4 multi-grid levels
    Coarsest grid: 17 x 14 x 15 points
    Stencil: Weighted Finite Difference Operator
      6*3+1=19 point O(h^6) finite-difference Laplacian
      Finite-difference x-derivative with O(h^6) error (6 points)
      Finite-difference y-derivative with O(h^6) error (6 points)
      Finite-difference z-derivative with O(h^6) error (6 points)
    Max iterations: 1000
    Tolerance: 2.000000e-10

  Solvation:
    Cavity:  EffectivePotentialCavity
      Surface Calculator: GradientSurface with 3 nn
      Volume Calculator: KB51Volume
        compressibility: 72.57860092224
        temperature:     298.15
      EffectivePotentialCavity
        Potential: Power12Potential
          u0: 0.18eV
          pbc_cutoff: 1e-06
          tiny: 1e-10
        temperature: 298.15K    Dielectric:
      Type: LinearDielectric
      Solvent dielectric constant: 1.77    Interaction: SurfaceInteraction
      subscript: surf
      Surface_tension: 0.0011484376791625194 eV/(Angstrom^2)
XC parameters: PBE with 2 nearest neighbor stencil

Memory estimate:
  Process memory now: 271.96 MiB
  Calculator: 35.84 MiB
    Density: 3.70 MiB
      Arrays: 2.64 MiB
      Localized functions: 0.48 MiB
      Mixer: 0.57 MiB
    Hamiltonian: 25.80 MiB
      Arrays: 1.73 MiB
      XC: 0.00 MiB
      Poisson: 1.98 MiB
      vbar: 0.04 MiB
      Solvation: 22.06 MiB
    Wavefunctions: 6.34 MiB
      Arrays psit_nG: 2.87 MiB
      Eigensolver: 3.41 MiB
      Projections: 0.00 MiB
      Projectors: 0.05 MiB

Total number of cores used: 16
Domain decomposition: 4 x 2 x 2

Number of atoms: 14
Number of atomic orbitals: 35
Number of bands in calculation: 30
Number of valence electrons: 42
Bands to converge: occupied

... initialized

Initializing position-dependent things.

Solvation position-dependent initialization:
  Atomic radii for Power12Potential:
    Type    Radius   No. of atoms
       H     1.090     7
       O     1.520     2
       N     1.550     1
       C     1.700     3
       S     1.800     1

Density initialized from atomic densities
Creating initial wave functions:
  30 bands from LCAO basis set

        .--------------------------------.  
       /|                                |  
      / |                                |  
     /  |                                |  
    /   |                                |  
   /    |                                |  
  /     |                                |  
 *      |                                |  
 |      |                 O              |  
 |      |          H                     |  
 |      |      H   C  H   C              |  
 |      |      S    H C    O             |  
 |      |                                |  
 |      |           H NHH                |  
 |      |                                |  
 |      .--------------------------------.  
 |     /                                /   
 |    /                                /    
 |   /                                /     
 |  /                                /      
 | /                                /       
 |/                                /        
 *--------------------------------*         

Positions:
   0 N      7.298468    5.491675    4.750711    ( 0.0000,  0.0000,  0.0000)
   1 C      7.138215    6.048440    6.126043    ( 0.0000,  0.0000,  0.0000)
   2 C      8.553590    6.152034    6.779260    ( 0.0000,  0.0000,  0.0000)
   3 O      9.466184    5.458135    6.243521    ( 0.0000,  0.0000,  0.0000)
   4 H      7.466040    6.229633    4.057283    ( 0.0000,  0.0000,  0.0000)
   5 H      8.132017    4.877235    4.764881    ( 0.0000,  0.0000,  0.0000)
   6 H      6.697611    7.046788    6.038392    ( 0.0000,  0.0000,  0.0000)
   7 C      6.220703    5.143924    6.952680    ( 0.0000,  0.0000,  0.0000)
   8 S      4.600866    4.787746    6.173621    ( 0.0000,  0.0000,  0.0000)
   9 H      6.063040    5.584212    7.942717    ( 0.0000,  0.0000,  0.0000)
  10 H      6.674846    4.153212    7.087175    ( 0.0000,  0.0000,  0.0000)
  11 H      4.133816    6.059638    6.170556    ( 0.0000,  0.0000,  0.0000)
  12 O      8.643107    6.897546    7.789501    ( 0.0000,  0.0000,  0.0000)
  13 H      6.454178    4.973107    4.459260    ( 0.0000,  0.0000,  0.0000)

Unit cell:
           periodic     x           y           z      points  spacing
  1. axis:    no    13.600000    0.000000    0.000000    68     0.2000
  2. axis:    no     0.000000   11.200000    0.000000    56     0.2000
  3. axis:    no     0.000000    0.000000   12.000000    60     0.2000

  Lengths:  13.600000  11.200000  12.000000
  Angles:   90.000000  90.000000  90.000000

Effective grid spacing dv^(1/3) = 0.2000

     iter     time        total  log10-change:
                         energy   eigst   dens
iter:   1 21:46:46   -85.272690
iter:   2 21:46:46   -80.504230   +0.54  -0.75
iter:   3 21:46:47   -79.302959   +0.45  -0.94
iter:   4 21:46:48   -79.113014   -0.25  -1.16
iter:   5 21:46:49   -79.118421   -0.75  -1.60
iter:   6 21:46:49   -79.113942c  -1.24  -2.05
iter:   7 21:46:50   -79.112177c  -1.96  -2.35
iter:   8 21:46:50   -79.111672c  -2.39  -2.59
iter:   9 21:46:50   -79.111124c  -2.97  -3.04
iter:  10 21:46:51   -79.111369c  -3.27  -3.22
iter:  11 21:46:51   -79.111780c  -3.79  -3.62
iter:  12 21:46:51   -79.111573c  -4.12  -3.84
iter:  13 21:46:52   -79.111476c  -4.44  -4.01c
iter:  14 21:46:52   -79.111611c  -4.84  -4.40c
iter:  15 21:46:52   -79.111616c  -5.16  -4.55c
iter:  16 21:46:53   -79.111393c  -5.50  -4.82c
iter:  17 21:46:53   -79.111449c  -5.80  -4.98c
iter:  18 21:46:53   -79.111561c  -6.16  -5.36c
iter:  19 21:46:53   -79.111547c  -6.45  -5.44c
iter:  20 21:46:54   -79.111529c  -6.80  -5.54c
iter:  21 21:46:54   -79.111529c  -7.28  -6.04c
iter:  22 21:46:54   -79.111525c  -7.56c -6.08c

Converged after 22 iterations.

Dipole moment: (-1.481681, -0.320320, -1.515380) |e|*Ang

Energy contributions relative to reference atoms: (reference = -19591.361486)

Kinetic:        +80.129825
Potential:      -89.695936
External:        +0.021545
XC:             -72.209513
Entropy (-ST):   +0.000000
Local:           +2.459692
Interactions  
 surf:           +0.182861
--------------------------
Free energy:    -79.111525
Extrapolated:   -79.111525

Solvation cavity surface area: 159.22601
Solvation cavity volume: 161.55544
 Band  Eigenvalues  Occupancy
    0    -25.86264    2.00000
    1    -25.05450    2.00000
    2    -23.10135    2.00000
    3    -20.61459    2.00000
    4    -18.43902    2.00000
    5    -16.07108    2.00000
    6    -15.03625    2.00000
    7    -14.88169    2.00000
    8    -13.18357    2.00000
    9    -12.37636    2.00000
   10    -11.14501    2.00000
   11    -10.89971    2.00000
   12    -10.39529    2.00000
   13     -9.63945    2.00000
   14     -9.32949    2.00000
   15     -9.11948    2.00000
   16     -8.65730    2.00000
   17     -6.65267    2.00000
   18     -5.79803    2.00000
   19     -5.62501    2.00000
   20     -5.12764    2.00000
   21     -1.46402    0.00000
   22     -1.13329    0.00000
   23     -0.63014    0.00000
   24     -0.28607    0.00000
   25      0.05974    0.00000
   26      0.34565    0.00000
   27      0.54080    0.00000
   28      0.88118    0.00000
   29      0.88282    0.00000

Fermi level: -3.29583

Gap: 3.664 eV
Transition (v -> c):
  (s=0, k=0, n=20, [0.00, 0.00, 0.00]) -> (s=0, k=0, n=21, [0.00, 0.00, 0.00])
Input parameters:
  external: None

Timing:                              incl.     excl.
-----------------------------------------------------------
Hamiltonian:                        50.495     8.884   2.3% ||
 Atomic:                             0.009     0.008   0.0% |
  XC Correction:                     0.000     0.000   0.0% |
 Hartree integrate/restrict:         0.092     0.092   0.0% |
 Initialize Hamiltonian:             0.971     0.971   0.3% |
 Poisson:                           39.380    39.380  10.2% |---|
 XC 3D grid:                         1.133     1.133   0.3% |
 vbar:                               0.027     0.027   0.0% |
LCAO initialization:                14.143    12.827   3.3% ||
 LCAO eigensolver:                   0.505     0.003   0.0% |
  Calculate projections:             0.001     0.001   0.0% |
  DenseAtomicCorrection:             0.001     0.001   0.0% |
  Distribute overlap matrix:         0.462     0.462   0.1% |
  Orbital Layouts:                   0.020     0.020   0.0% |
  Potential matrix:                  0.019     0.019   0.0% |
 LCAO to grid:                       0.140     0.140   0.0% |
 Set positions (LCAO WFS):           0.670     0.410   0.1% |
  Basic WFS set positions:           0.021     0.021   0.0% |
  Basis functions set positions:     0.003     0.003   0.0% |
  P tci:                             0.010     0.010   0.0% |
  ST tci:                            0.065     0.065   0.0% |
  mktci:                             0.161     0.161   0.0% |
SCF-cycle:                         312.671     0.616   0.2% |
 Davidson:                          98.815    36.183   9.3% |---|
  Apply hamiltonian:                 8.219     8.219   2.1% ||
  Subspace diag:                    13.919     0.107   0.0% |
   calc_h_matrix:                    9.348     1.469   0.4% |
    Apply hamiltonian:               7.879     7.879   2.0% ||
   diagonalize:                      0.711     0.711   0.2% |
   rotate_psi:                       3.754     3.754   1.0% |
  calc. matrices:                   31.649    11.755   3.0% ||
   Apply hamiltonian:               19.893    19.893   5.1% |-|
  diagonalize:                       1.176     1.176   0.3% |
  rotate_psi:                        7.668     7.668   2.0% ||
 Density:                            3.774     0.016   0.0% |
  Atomic density matrices:           0.893     0.893   0.2% |
  Mix:                               2.179     2.179   0.6% |
  Multipole moments:                 0.121     0.121   0.0% |
  Pseudo density:                    0.564     0.553   0.1% |
   Symmetrize density:               0.012     0.012   0.0% |
 Hamiltonian:                      208.190    34.978   9.0% |---|
  Atomic:                            0.194     0.189   0.0% |
   XC Correction:                    0.005     0.005   0.0% |
  Hartree integrate/restrict:        1.649     1.649   0.4% |
  Poisson:                         147.090   147.090  38.0% |--------------|
  XC 3D grid:                       23.942    23.942   6.2% |-|
  vbar:                              0.338     0.338   0.1% |
 Orthonormalize:                     1.276     0.005   0.0% |
  calc_s_matrix:                     0.041     0.041   0.0% |
  inverse-cholesky:                  1.114     1.114   0.3% |
  projections:                       0.005     0.005   0.0% |
  rotate_psi_s:                      0.111     0.111   0.0% |
Set symmetry:                        0.033     0.033   0.0% |
Other:                               9.751     9.751   2.5% ||
-----------------------------------------------------------
Total:                                       387.092 100.0%

Memory usage: 271.96 MiB
Date: Fri Oct  6 21:46:54 2023
