
  ___ ___ ___ _ _ _  
 |   |   |_  | | | | 
 | | | | | . | | | | 
 |__ |  _|___|_____|  23.9.2b1
 |___|_|             

User:   fr_ez1021@n0206
Date:   Fri Oct  6 21:47:45 2023
Arch:   x86_64
Pid:    1487625
CWD:    /lustre/home/fr/fr_fr/fr_ez1021/sims/amino_acids_publish/scripts
Python: 3.8.3
gpaw:   /home/fr/fr_fr/fr_ez1021/source/origin/gpaw/gpaw (68657f1768)
_gpaw:  /home/fr/fr_fr/fr_ez1021/source/origin/gpaw/build/lib.linux-x86_64-3.8/
        _gpaw.cpython-38-x86_64-linux-gnu.so (d6c5f22bb1)
ase:    /home/fr/fr_fr/fr_ez1021/source/origin/ase/ase (version 3.23.0b1-4bd916e410)
numpy:  /opt/bwhpc/common/numlib/python_numpy/1.19.0_python-3.8.3/lib/python3.8/site-packages/numpy-1.19.0-py3.8-linux-x86_64.egg/numpy (version 1.19.0)
scipy:  /opt/bwhpc/common/numlib/python_scipy/1.5.0_numpy-1.19.0_python-3.8.3/lib/python3.8/site-packages/scipy-1.5.0-py3.8-linux-x86_64.egg/scipy (version 1.5.0)
libxc:  5.1.7
units:  Angstrom and eV
cores: 16
OpenMP: False
OMP_NUM_THREADS: 1

Input parameters:
  mode: fd
  xc: PBE

Implicit solvation parameters:
Cavity:  EffectivePotentialCavity
  Surface Calculator: GradientSurface with 3 nn
  Volume Calculator: KB51Volume
    compressibility: 72.57860092224
    temperature:     298.15
  EffectivePotentialCavity
    Potential: Power12Potential
      u0: 0.18eV
      pbc_cutoff: 1e-06
      tiny: 1e-10
    temperature: 298.15K
Dielectric:
  Type: LinearDielectric
  Solvent dielectric constant: 1.77
Interaction: SurfaceInteraction
  subscript: surf
  Surface_tension: 0.0011484376791625194 eV/(Angstrom^2)

System changes: positions, numbers, cell, pbc, initial_charges, initial_magmoms 

Initialize ...

species:
  N:
    name: Nitrogen
    id: f7500608b86eaa90eef8b1d9a670dc53
    Z: 7.0
    valence: 5
    core: 2
    charge: 0.0
    file: /home/fr/fr_fr/fr_ez1021/source/gpaw-setups/gpaw-setups-0.9.20000/N.PBE.gz
    compensation charges: {type: gauss,
                           rc: 0.18,
                           lmax: 2}
    cutoffs: {filter: 1.11,
              core: 0.96}
    valence states:
      #              energy  rcut
      - 2s(2.00)   -18.583   0.603
      - 2p(3.00)    -7.089   0.529
      -  s           8.629   0.603
      -  p          20.123   0.529
      -  d           0.000   0.577
  
    # Using partial waves for N as LCAO basis

  C:
    name: Carbon
    id: 4aa54d4b901d75f77cc0ea3eec22967b
    Z: 6.0
    valence: 4
    core: 2
    charge: 0.0
    file: /home/fr/fr_fr/fr_ez1021/source/gpaw-setups/gpaw-setups-0.9.20000/C.PBE.gz
    compensation charges: {type: gauss,
                           rc: 0.20,
                           lmax: 2}
    cutoffs: {filter: 1.14,
              core: 1.14}
    valence states:
      #              energy  rcut
      - 2s(2.00)   -13.751   0.635
      - 2p(2.00)    -5.284   0.635
      -  s          13.461   0.635
      -  p          21.927   0.635
      -  d           0.000   0.635
  
    # Using partial waves for C as LCAO basis

  O:
    name: Oxygen
    id: 32ecd46bf208036f09c70b0ec9a88b78
    Z: 8.0
    valence: 6
    core: 2
    charge: 0.0
    file: /home/fr/fr_fr/fr_ez1021/source/gpaw-setups/gpaw-setups-0.9.20000/O.PBE.gz
    compensation charges: {type: gauss,
                           rc: 0.21,
                           lmax: 2}
    cutoffs: {filter: 1.17,
              core: 0.83}
    valence states:
      #              energy  rcut
      - 2s(2.00)   -23.961   0.688
      - 2p(4.00)    -9.029   0.598
      -  s           3.251   0.688
      -  p          18.182   0.598
      -  d           0.000   0.619
  
    # Using partial waves for O as LCAO basis

  H:
    name: Hydrogen
    id: d65de229564ff8ea4db303e23b6d1ecf
    Z: 1.0
    valence: 1
    core: 0
    charge: 0.0
    file: /home/fr/fr_fr/fr_ez1021/source/gpaw-setups/gpaw-setups-0.9.20000/H.PBE.gz
    compensation charges: {type: gauss,
                           rc: 0.15,
                           lmax: 2}
    cutoffs: {filter: 0.85,
              core: 0.53}
    valence states:
      #              energy  rcut
      - 1s(1.00)    -6.494   0.476
      -  s          20.717   0.476
      -  p           0.000   0.476
  
    # Using partial waves for H as LCAO basis

Reference energy: -14895.682746  # eV

Spin-paired calculation

Convergence criteria:
 Maximum [total energy] change in last 3 cyles: 0.0005 eV / valence electron
 Maximum integral of absolute [dens]ity change: 0.0001 electrons / valence electron
 Maximum integral of absolute [eigenst]ate change: 4e-08 eV^2 / valence electron
 Maximum number of scf [iter]ations: 333
 (Square brackets indicate name in SCF output, whereas a 'c' in
 the SCF output indicates the quantity has converged.)

Symmetries present (total): 1

  ( 1  0  0)
  ( 0  1  0)
  ( 0  0  1)

1 k-point (Gamma)
1 k-point in the irreducible part of the Brillouin zone
       k-points in crystal coordinates                weights
   0:     0.00000000    0.00000000    0.00000000          1/1

Wave functions: Uniform real-space grid
  Kinetic energy operator: 6*3+1=19 point O(h^6) finite-difference Laplacian
  ScaLapack parameters: grid=1x1, blocksize=None
  Wavefunction extrapolation:
    Improved wavefunction reuse through dual PAW basis 

Occupation numbers: # Zero width 

Eigensolver
   Davidson(niter=2) 

Densities:
  Coarse grid: 64*72*64 grid
  Fine grid: 128*144*128 grid
  Total Charge: 0.000000 

Density mixing:
  Method: separate
  Backend: pulay
  Linear mixing parameter: 0.25
  old densities: 3
  Damping of long wavelength oscillations: 1  # (no daming) 

Hamiltonian:
  XC and Coulomb potentials evaluated on a 128*144*128 grid
  Using the PBE Exchange-Correlation functional
  Interpolation: tri-quintic (5. degree polynomial)
  Poisson solver: Jacobi weighted FD solver with dielectric and 5 multi-grid levels
    Coarsest grid: 8 x 9 x 8 points
    Stencil: Weighted Finite Difference Operator
      6*3+1=19 point O(h^6) finite-difference Laplacian
      Finite-difference x-derivative with O(h^6) error (6 points)
      Finite-difference y-derivative with O(h^6) error (6 points)
      Finite-difference z-derivative with O(h^6) error (6 points)
    Max iterations: 1000
    Tolerance: 2.000000e-10

  Solvation:
    Cavity:  EffectivePotentialCavity
      Surface Calculator: GradientSurface with 3 nn
      Volume Calculator: KB51Volume
        compressibility: 72.57860092224
        temperature:     298.15
      EffectivePotentialCavity
        Potential: Power12Potential
          u0: 0.18eV
          pbc_cutoff: 1e-06
          tiny: 1e-10
        temperature: 298.15K    Dielectric:
      Type: LinearDielectric
      Solvent dielectric constant: 1.77    Interaction: SurfaceInteraction
      subscript: surf
      Surface_tension: 0.0011484376791625194 eV/(Angstrom^2)
XC parameters: PBE with 2 nearest neighbor stencil

Memory estimate:
  Process memory now: 166.74 MiB
  Calculator: 48.72 MiB
    Density: 4.72 MiB
      Arrays: 3.43 MiB
      Localized functions: 0.55 MiB
      Mixer: 0.75 MiB
    Hamiltonian: 33.47 MiB
      Arrays: 2.24 MiB
      XC: 0.00 MiB
      Poisson: 2.57 MiB
      vbar: 0.04 MiB
      Solvation: 28.62 MiB
    Wavefunctions: 10.52 MiB
      Arrays psit_nG: 4.86 MiB
      Eigensolver: 5.60 MiB
      Projections: 0.00 MiB
      Projectors: 0.06 MiB

Total number of cores used: 16
Domain decomposition: 2 x 4 x 2

Number of atoms: 19
Number of atomic orbitals: 49
Number of bands in calculation: 39
Number of valence electrons: 58
Bands to converge: occupied

... initialized

Initializing position-dependent things.

Solvation position-dependent initialization:
  Atomic radii for Power12Potential:
    Type    Radius   No. of atoms
       H     1.090     9
       O     1.520     4
       N     1.550     1
       C     1.700     5

Density initialized from atomic densities
Creating initial wave functions:
  39 bands from LCAO basis set

          .------------------------------.  
         /|                              |  
        / |                              |  
       /  |                              |  
      /   |                              |  
     /    |                              |  
    /     |                              |  
   /      |                              |  
  /       |                              |  
 *        |                              |  
 |        |                              |  
 |        |         H   OH O             |  
 |        |      H  OC   CO              |  
 |        |        C H                   |  
 |        |      H HC H                  |  
 |        |       H                      |  
 |        .------------------------------.  
 |       /                              /   
 |      /                              /    
 |     /                              /     
 |    /                              /      
 |   /                              /       
 |  /                              /        
 | /                              /         
 |/                              /          
 *------------------------------*           

Positions:
   0 N      5.244284    9.126258    5.218114    ( 0.0000,  0.0000,  0.0000)
   1 C      6.121769    8.286423    6.103186    ( 0.0000,  0.0000,  0.0000)
   2 C      7.521264    8.948095    6.102167    ( 0.0000,  0.0000,  0.0000)
   3 O      7.665145   10.034293    5.492983    ( 0.0000,  0.0000,  0.0000)
   4 H      4.370838    9.403765    5.679584    ( 0.0000,  0.0000,  0.0000)
   5 H      5.001405    8.646386    4.343524    ( 0.0000,  0.0000,  0.0000)
   6 H      5.718045    8.387552    7.119462    ( 0.0000,  0.0000,  0.0000)
   7 C      6.131891    6.799075    5.689528    ( 0.0000,  0.0000,  0.0000)
   8 C      5.877823    5.781425    6.808498    ( 0.0000,  0.0000,  0.0000)
   9 C      6.979576    5.393064    7.781098    ( 0.0000,  0.0000,  0.0000)
  10 O      8.057083    6.148937    7.919957    ( 0.0000,  0.0000,  0.0000)
  11 O      6.860137    4.365707    8.456476    ( 0.0000,  0.0000,  0.0000)
  12 H      7.064099    6.559421    5.157584    ( 0.0000,  0.0000,  0.0000)
  13 H      5.325614    6.644445    4.958761    ( 0.0000,  0.0000,  0.0000)
  14 H      5.561549    4.833832    6.350531    ( 0.0000,  0.0000,  0.0000)
  15 H      5.025076    6.100971    7.431700    ( 0.0000,  0.0000,  0.0000)
  16 O      8.429162    8.326609    6.746932    ( 0.0000,  0.0000,  0.0000)
  17 H      8.097771    7.044565    7.358114    ( 0.0000,  0.0000,  0.0000)
  18 H      5.804982    9.972853    4.985345    ( 0.0000,  0.0000,  0.0000)

Unit cell:
           periodic     x           y           z      points  spacing
  1. axis:    no    12.800000    0.000000    0.000000    64     0.2000
  2. axis:    no     0.000000   14.400000    0.000000    72     0.2000
  3. axis:    no     0.000000    0.000000   12.800000    64     0.2000

  Lengths:  12.800000  14.400000  12.800000
  Angles:   90.000000  90.000000  90.000000

Effective grid spacing dv^(1/3) = 0.2000

     iter     time        total  log10-change:
                         energy   eigst   dens
iter:   1 21:47:47  -124.664585
iter:   2 21:47:48  -117.784620   +0.63  -0.75
iter:   3 21:47:49  -115.965109   +0.53  -0.96
iter:   4 21:47:49  -115.701208   -0.17  -1.20
iter:   5 21:47:50  -115.698619   -0.74  -1.57
iter:   6 21:47:51  -115.690739c  -1.25  -2.09
iter:   7 21:47:51  -115.690975c  -1.95  -2.52
iter:   8 21:47:52  -115.690649c  -2.41  -2.70
iter:   9 21:47:53  -115.690810c  -2.84  -3.03
iter:  10 21:47:53  -115.690852c  -3.19  -3.21
iter:  11 21:47:54  -115.691023c  -3.67  -3.67
iter:  12 21:47:54  -115.690964c  -3.99  -3.82
iter:  13 21:47:55  -115.690863c  -4.34  -4.12c
iter:  14 21:47:55  -115.690988c  -4.66  -4.25c
iter:  15 21:47:55  -115.691012c  -5.02  -4.67c
iter:  16 21:47:56  -115.690987c  -5.34  -4.72c
iter:  17 21:47:56  -115.690971c  -5.75  -4.88c
iter:  18 21:47:57  -115.691017c  -6.14  -5.35c
iter:  19 21:47:57  -115.691046c  -6.41  -5.43c
iter:  20 21:47:57  -115.691045c  -6.67  -5.61c
iter:  21 21:47:58  -115.690985c  -7.01  -5.98c
iter:  22 21:47:58  -115.690954c  -7.36  -6.16c
iter:  23 21:47:59  -115.690955c  -7.64c -6.46c

Converged after 23 iterations.

Dipole moment: (-2.405378, 1.042388, -1.561624) |e|*Ang

Energy contributions relative to reference atoms: (reference = -14895.682746)

Kinetic:       +118.518455
Potential:     -132.264330
External:        +0.000000
XC:            -106.012107
Entropy (-ST):   +0.000000
Local:           +3.857452
Interactions  
 surf:           +0.209575
--------------------------
Free energy:   -115.690955
Extrapolated:  -115.690955

Solvation cavity surface area: 182.48668
Solvation cavity volume: 193.84168
 Band  Eigenvalues  Occupancy
    0    -26.71932    2.00000
    1    -26.51802    2.00000
    2    -25.72002    2.00000
    3    -24.40089    2.00000
    4    -24.03186    2.00000
    5    -20.62666    2.00000
    6    -18.58089    2.00000
    7    -16.62282    2.00000
    8    -15.53518    2.00000
    9    -14.99207    2.00000
   10    -14.57230    2.00000
   11    -13.82354    2.00000
   12    -12.81557    2.00000
   13    -12.74814    2.00000
   14    -11.53260    2.00000
   15    -11.04081    2.00000
   16    -10.80802    2.00000
   17    -10.68465    2.00000
   18    -10.30375    2.00000
   19     -9.92093    2.00000
   20     -9.53248    2.00000
   21     -9.47747    2.00000
   22     -8.93234    2.00000
   23     -8.06243    2.00000
   24     -6.93016    2.00000
   25     -6.66693    2.00000
   26     -6.52572    2.00000
   27     -6.28212    2.00000
   28     -5.73233    2.00000
   29     -1.73999    0.00000
   30     -0.98529    0.00000
   31     -0.63600    0.00000
   32     -0.62368    0.00000
   33     -0.40975    0.00000
   34      0.00507    0.00000
   35      0.15355    0.00000
   36      0.58606    0.00000
   37      0.81989    0.00000
   38      1.28809    0.00000

Fermi level: -3.73616

Gap: 3.992 eV
Transition (v -> c):
  (s=0, k=0, n=28, [0.00, 0.00, 0.00]) -> (s=0, k=0, n=29, [0.00, 0.00, 0.00])
Input parameters:
  external: {direction: [1. 0. 0.],
             name: ConstantElectricField,
             strength: 0.01}

Initialize ...

species:
  N:
    name: Nitrogen
    id: f7500608b86eaa90eef8b1d9a670dc53
    Z: 7.0
    valence: 5
    core: 2
    charge: 0.0
    file: /home/fr/fr_fr/fr_ez1021/source/gpaw-setups/gpaw-setups-0.9.20000/N.PBE.gz
    compensation charges: {type: gauss,
                           rc: 0.18,
                           lmax: 2}
    cutoffs: {filter: 1.11,
              core: 0.96}
    valence states:
      #              energy  rcut
      - 2s(2.00)   -18.583   0.603
      - 2p(3.00)    -7.089   0.529
      -  s           8.629   0.603
      -  p          20.123   0.529
      -  d           0.000   0.577
  
    # Using partial waves for N as LCAO basis

  C:
    name: Carbon
    id: 4aa54d4b901d75f77cc0ea3eec22967b
    Z: 6.0
    valence: 4
    core: 2
    charge: 0.0
    file: /home/fr/fr_fr/fr_ez1021/source/gpaw-setups/gpaw-setups-0.9.20000/C.PBE.gz
    compensation charges: {type: gauss,
                           rc: 0.20,
                           lmax: 2}
    cutoffs: {filter: 1.14,
              core: 1.14}
    valence states:
      #              energy  rcut
      - 2s(2.00)   -13.751   0.635
      - 2p(2.00)    -5.284   0.635
      -  s          13.461   0.635
      -  p          21.927   0.635
      -  d           0.000   0.635
  
    # Using partial waves for C as LCAO basis

  O:
    name: Oxygen
    id: 32ecd46bf208036f09c70b0ec9a88b78
    Z: 8.0
    valence: 6
    core: 2
    charge: 0.0
    file: /home/fr/fr_fr/fr_ez1021/source/gpaw-setups/gpaw-setups-0.9.20000/O.PBE.gz
    compensation charges: {type: gauss,
                           rc: 0.21,
                           lmax: 2}
    cutoffs: {filter: 1.17,
              core: 0.83}
    valence states:
      #              energy  rcut
      - 2s(2.00)   -23.961   0.688
      - 2p(4.00)    -9.029   0.598
      -  s           3.251   0.688
      -  p          18.182   0.598
      -  d           0.000   0.619
  
    # Using partial waves for O as LCAO basis

  H:
    name: Hydrogen
    id: d65de229564ff8ea4db303e23b6d1ecf
    Z: 1.0
    valence: 1
    core: 0
    charge: 0.0
    file: /home/fr/fr_fr/fr_ez1021/source/gpaw-setups/gpaw-setups-0.9.20000/H.PBE.gz
    compensation charges: {type: gauss,
                           rc: 0.15,
                           lmax: 2}
    cutoffs: {filter: 0.85,
              core: 0.53}
    valence states:
      #              energy  rcut
      - 1s(1.00)    -6.494   0.476
      -  s          20.717   0.476
      -  p           0.000   0.476
  
    # Using partial waves for H as LCAO basis

Reference energy: -14895.682746  # eV

Spin-paired calculation

Convergence criteria:
 Maximum [total energy] change in last 3 cyles: 0.0005 eV / valence electron
 Maximum integral of absolute [dens]ity change: 0.0001 electrons / valence electron
 Maximum integral of absolute [eigenst]ate change: 4e-08 eV^2 / valence electron
 Maximum number of scf [iter]ations: 333
 (Square brackets indicate name in SCF output, whereas a 'c' in
 the SCF output indicates the quantity has converged.)

Symmetries present (total): 1

  ( 1  0  0)
  ( 0  1  0)
  ( 0  0  1)

1 k-point (Gamma)
1 k-point in the irreducible part of the Brillouin zone
       k-points in crystal coordinates                weights
   0:     0.00000000    0.00000000    0.00000000          1/1

Wave functions: Uniform real-space grid
  Kinetic energy operator: 6*3+1=19 point O(h^6) finite-difference Laplacian
  ScaLapack parameters: grid=1x1, blocksize=None
  Wavefunction extrapolation:
    Improved wavefunction reuse through dual PAW basis 

Occupation numbers: # Zero width 

Eigensolver
   Davidson(niter=2) 

Densities:
  Coarse grid: 64*72*64 grid
  Fine grid: 128*144*128 grid
  Total Charge: 0.000000 

Density mixing:
  Method: separate
  Backend: pulay
  Linear mixing parameter: 0.25
  old densities: 3
  Damping of long wavelength oscillations: 1  # (no daming) 

Hamiltonian:
  XC and Coulomb potentials evaluated on a 128*144*128 grid
  Using the PBE Exchange-Correlation functional
  External potential:
    Constant electric field: (0.010, 0.000, 0.000) V/Ang
  Interpolation: tri-quintic (5. degree polynomial)
  Poisson solver: Jacobi weighted FD solver with dielectric and 5 multi-grid levels
    Coarsest grid: 8 x 9 x 8 points
    Stencil: Weighted Finite Difference Operator
      6*3+1=19 point O(h^6) finite-difference Laplacian
      Finite-difference x-derivative with O(h^6) error (6 points)
      Finite-difference y-derivative with O(h^6) error (6 points)
      Finite-difference z-derivative with O(h^6) error (6 points)
    Max iterations: 1000
    Tolerance: 2.000000e-10

  Solvation:
    Cavity:  EffectivePotentialCavity
      Surface Calculator: GradientSurface with 3 nn
      Volume Calculator: KB51Volume
        compressibility: 72.57860092224
        temperature:     298.15
      EffectivePotentialCavity
        Potential: Power12Potential
          u0: 0.18eV
          pbc_cutoff: 1e-06
          tiny: 1e-10
        temperature: 298.15K    Dielectric:
      Type: LinearDielectric
      Solvent dielectric constant: 1.77    Interaction: SurfaceInteraction
      subscript: surf
      Surface_tension: 0.0011484376791625194 eV/(Angstrom^2)
XC parameters: PBE with 2 nearest neighbor stencil

Memory estimate:
  Process memory now: 261.12 MiB
  Calculator: 48.72 MiB
    Density: 4.72 MiB
      Arrays: 3.43 MiB
      Localized functions: 0.55 MiB
      Mixer: 0.75 MiB
    Hamiltonian: 33.47 MiB
      Arrays: 2.24 MiB
      XC: 0.00 MiB
      Poisson: 2.57 MiB
      vbar: 0.04 MiB
      Solvation: 28.62 MiB
    Wavefunctions: 10.52 MiB
      Arrays psit_nG: 4.86 MiB
      Eigensolver: 5.60 MiB
      Projections: 0.00 MiB
      Projectors: 0.06 MiB

Total number of cores used: 16
Domain decomposition: 2 x 4 x 2

Number of atoms: 19
Number of atomic orbitals: 49
Number of bands in calculation: 39
Number of valence electrons: 58
Bands to converge: occupied

... initialized

Initializing position-dependent things.

Solvation position-dependent initialization:
  Atomic radii for Power12Potential:
    Type    Radius   No. of atoms
       H     1.090     9
       O     1.520     4
       N     1.550     1
       C     1.700     5

Density initialized from atomic densities
Creating initial wave functions:
  39 bands from LCAO basis set

          .------------------------------.  
         /|                              |  
        / |                              |  
       /  |                              |  
      /   |                              |  
     /    |                              |  
    /     |                              |  
   /      |                              |  
  /       |                              |  
 *        |                              |  
 |        |                              |  
 |        |         H   OH O             |  
 |        |      H  OC   CO              |  
 |        |        C H                   |  
 |        |      H HC H                  |  
 |        |       H                      |  
 |        .------------------------------.  
 |       /                              /   
 |      /                              /    
 |     /                              /     
 |    /                              /      
 |   /                              /       
 |  /                              /        
 | /                              /         
 |/                              /          
 *------------------------------*           

Positions:
   0 N      5.244284    9.126258    5.218114    ( 0.0000,  0.0000,  0.0000)
   1 C      6.121769    8.286423    6.103186    ( 0.0000,  0.0000,  0.0000)
   2 C      7.521264    8.948095    6.102167    ( 0.0000,  0.0000,  0.0000)
   3 O      7.665145   10.034293    5.492983    ( 0.0000,  0.0000,  0.0000)
   4 H      4.370838    9.403765    5.679584    ( 0.0000,  0.0000,  0.0000)
   5 H      5.001405    8.646386    4.343524    ( 0.0000,  0.0000,  0.0000)
   6 H      5.718045    8.387552    7.119462    ( 0.0000,  0.0000,  0.0000)
   7 C      6.131891    6.799075    5.689528    ( 0.0000,  0.0000,  0.0000)
   8 C      5.877823    5.781425    6.808498    ( 0.0000,  0.0000,  0.0000)
   9 C      6.979576    5.393064    7.781098    ( 0.0000,  0.0000,  0.0000)
  10 O      8.057083    6.148937    7.919957    ( 0.0000,  0.0000,  0.0000)
  11 O      6.860137    4.365707    8.456476    ( 0.0000,  0.0000,  0.0000)
  12 H      7.064099    6.559421    5.157584    ( 0.0000,  0.0000,  0.0000)
  13 H      5.325614    6.644445    4.958761    ( 0.0000,  0.0000,  0.0000)
  14 H      5.561549    4.833832    6.350531    ( 0.0000,  0.0000,  0.0000)
  15 H      5.025076    6.100971    7.431700    ( 0.0000,  0.0000,  0.0000)
  16 O      8.429162    8.326609    6.746932    ( 0.0000,  0.0000,  0.0000)
  17 H      8.097771    7.044565    7.358114    ( 0.0000,  0.0000,  0.0000)
  18 H      5.804982    9.972853    4.985345    ( 0.0000,  0.0000,  0.0000)

Unit cell:
           periodic     x           y           z      points  spacing
  1. axis:    no    12.800000    0.000000    0.000000    64     0.2000
  2. axis:    no     0.000000   14.400000    0.000000    72     0.2000
  3. axis:    no     0.000000    0.000000   12.800000    64     0.2000

  Lengths:  12.800000  14.400000  12.800000
  Angles:   90.000000  90.000000  90.000000

Effective grid spacing dv^(1/3) = 0.2000

     iter     time        total  log10-change:
                         energy   eigst   dens
iter:   1 21:48:01  -124.632596
iter:   2 21:48:01  -117.758833   +0.63  -0.75
iter:   3 21:48:02  -115.940885   +0.53  -0.96
iter:   4 21:48:03  -115.677175   -0.17  -1.20
iter:   5 21:48:04  -115.674609   -0.74  -1.57
iter:   6 21:48:04  -115.666737c  -1.25  -2.09
iter:   7 21:48:05  -115.666972c  -1.95  -2.52
iter:   8 21:48:06  -115.666647c  -2.41  -2.70
iter:   9 21:48:06  -115.666808c  -2.84  -3.03
iter:  10 21:48:07  -115.666850c  -3.19  -3.21
iter:  11 21:48:07  -115.667021c  -3.67  -3.67
iter:  12 21:48:08  -115.666963c  -3.99  -3.82
iter:  13 21:48:08  -115.666862c  -4.34  -4.12c
iter:  14 21:48:09  -115.666986c  -4.66  -4.25c
iter:  15 21:48:09  -115.667010c  -5.02  -4.67c
iter:  16 21:48:10  -115.666985c  -5.34  -4.72c
iter:  17 21:48:10  -115.666969c  -5.75  -4.88c
iter:  18 21:48:10  -115.667017c  -6.14  -5.35c
iter:  19 21:48:11  -115.667048c  -6.40  -5.43c
iter:  20 21:48:11  -115.667041c  -6.67  -5.62c
iter:  21 21:48:11  -115.666981c  -7.00  -5.99c
iter:  22 21:48:12  -115.666950c  -7.35  -6.19c
iter:  23 21:48:12  -115.666956c  -7.67c -6.53c

Converged after 23 iterations.

Dipole moment: (-2.394929, 1.042803, -1.560527) |e|*Ang

Energy contributions relative to reference atoms: (reference = -14895.682746)

Kinetic:       +118.522916
Potential:     -132.272391
External:        +0.023949
XC:            -106.008324
Entropy (-ST):   +0.000000
Local:           +3.857319
Interactions  
 surf:           +0.209575
--------------------------
Free energy:   -115.666956
Extrapolated:  -115.666956

Solvation cavity surface area: 182.48668
Solvation cavity volume: 193.84168
 Band  Eigenvalues  Occupancy
    0    -26.71270    2.00000
    1    -26.51244    2.00000
    2    -25.72155    2.00000
    3    -24.39420    2.00000
    4    -24.02345    2.00000
    5    -20.62820    2.00000
    6    -18.58229    2.00000
    7    -16.62446    2.00000
    8    -15.54113    2.00000
    9    -14.99457    2.00000
   10    -14.56660    2.00000
   11    -13.82384    2.00000
   12    -12.81607    2.00000
   13    -12.74519    2.00000
   14    -11.53214    2.00000
   15    -11.03578    2.00000
   16    -10.80585    2.00000
   17    -10.67945    2.00000
   18    -10.29627    2.00000
   19     -9.91798    2.00000
   20     -9.52928    2.00000
   21     -9.47312    2.00000
   22     -8.93135    2.00000
   23     -8.05558    2.00000
   24     -6.92209    2.00000
   25     -6.65781    2.00000
   26     -6.51714    2.00000
   27     -6.27344    2.00000
   28     -5.72736    2.00000
   29     -1.75465    0.00000
   30     -0.99083    0.00000
   31     -0.64129    0.00000
   32     -0.62571    0.00000
   33     -0.41622    0.00000
   34      0.01285    0.00000
   35      0.14543    0.00000
   36      0.57784    0.00000
   37      0.80285    0.00000
   38      1.27686    0.00000

Fermi level: -3.74100

Gap: 3.973 eV
Transition (v -> c):
  (s=0, k=0, n=28, [0.00, 0.00, 0.00]) -> (s=0, k=0, n=29, [0.00, 0.00, 0.00])
Input parameters:
  external: {direction: [0. 1. 0.],
             name: ConstantElectricField,
             strength: 0.01}

Initialize ...

species:
  N:
    name: Nitrogen
    id: f7500608b86eaa90eef8b1d9a670dc53
    Z: 7.0
    valence: 5
    core: 2
    charge: 0.0
    file: /home/fr/fr_fr/fr_ez1021/source/gpaw-setups/gpaw-setups-0.9.20000/N.PBE.gz
    compensation charges: {type: gauss,
                           rc: 0.18,
                           lmax: 2}
    cutoffs: {filter: 1.11,
              core: 0.96}
    valence states:
      #              energy  rcut
      - 2s(2.00)   -18.583   0.603
      - 2p(3.00)    -7.089   0.529
      -  s           8.629   0.603
      -  p          20.123   0.529
      -  d           0.000   0.577
  
    # Using partial waves for N as LCAO basis

  C:
    name: Carbon
    id: 4aa54d4b901d75f77cc0ea3eec22967b
    Z: 6.0
    valence: 4
    core: 2
    charge: 0.0
    file: /home/fr/fr_fr/fr_ez1021/source/gpaw-setups/gpaw-setups-0.9.20000/C.PBE.gz
    compensation charges: {type: gauss,
                           rc: 0.20,
                           lmax: 2}
    cutoffs: {filter: 1.14,
              core: 1.14}
    valence states:
      #              energy  rcut
      - 2s(2.00)   -13.751   0.635
      - 2p(2.00)    -5.284   0.635
      -  s          13.461   0.635
      -  p          21.927   0.635
      -  d           0.000   0.635
  
    # Using partial waves for C as LCAO basis

  O:
    name: Oxygen
    id: 32ecd46bf208036f09c70b0ec9a88b78
    Z: 8.0
    valence: 6
    core: 2
    charge: 0.0
    file: /home/fr/fr_fr/fr_ez1021/source/gpaw-setups/gpaw-setups-0.9.20000/O.PBE.gz
    compensation charges: {type: gauss,
                           rc: 0.21,
                           lmax: 2}
    cutoffs: {filter: 1.17,
              core: 0.83}
    valence states:
      #              energy  rcut
      - 2s(2.00)   -23.961   0.688
      - 2p(4.00)    -9.029   0.598
      -  s           3.251   0.688
      -  p          18.182   0.598
      -  d           0.000   0.619
  
    # Using partial waves for O as LCAO basis

  H:
    name: Hydrogen
    id: d65de229564ff8ea4db303e23b6d1ecf
    Z: 1.0
    valence: 1
    core: 0
    charge: 0.0
    file: /home/fr/fr_fr/fr_ez1021/source/gpaw-setups/gpaw-setups-0.9.20000/H.PBE.gz
    compensation charges: {type: gauss,
                           rc: 0.15,
                           lmax: 2}
    cutoffs: {filter: 0.85,
              core: 0.53}
    valence states:
      #              energy  rcut
      - 1s(1.00)    -6.494   0.476
      -  s          20.717   0.476
      -  p           0.000   0.476
  
    # Using partial waves for H as LCAO basis

Reference energy: -14895.682746  # eV

Spin-paired calculation

Convergence criteria:
 Maximum [total energy] change in last 3 cyles: 0.0005 eV / valence electron
 Maximum integral of absolute [dens]ity change: 0.0001 electrons / valence electron
 Maximum integral of absolute [eigenst]ate change: 4e-08 eV^2 / valence electron
 Maximum number of scf [iter]ations: 333
 (Square brackets indicate name in SCF output, whereas a 'c' in
 the SCF output indicates the quantity has converged.)

Symmetries present (total): 1

  ( 1  0  0)
  ( 0  1  0)
  ( 0  0  1)

1 k-point (Gamma)
1 k-point in the irreducible part of the Brillouin zone
       k-points in crystal coordinates                weights
   0:     0.00000000    0.00000000    0.00000000          1/1

Wave functions: Uniform real-space grid
  Kinetic energy operator: 6*3+1=19 point O(h^6) finite-difference Laplacian
  ScaLapack parameters: grid=1x1, blocksize=None
  Wavefunction extrapolation:
    Improved wavefunction reuse through dual PAW basis 

Occupation numbers: # Zero width 

Eigensolver
   Davidson(niter=2) 

Densities:
  Coarse grid: 64*72*64 grid
  Fine grid: 128*144*128 grid
  Total Charge: 0.000000 

Density mixing:
  Method: separate
  Backend: pulay
  Linear mixing parameter: 0.25
  old densities: 3
  Damping of long wavelength oscillations: 1  # (no daming) 

Hamiltonian:
  XC and Coulomb potentials evaluated on a 128*144*128 grid
  Using the PBE Exchange-Correlation functional
  External potential:
    Constant electric field: (0.000, 0.010, 0.000) V/Ang
  Interpolation: tri-quintic (5. degree polynomial)
  Poisson solver: Jacobi weighted FD solver with dielectric and 5 multi-grid levels
    Coarsest grid: 8 x 9 x 8 points
    Stencil: Weighted Finite Difference Operator
      6*3+1=19 point O(h^6) finite-difference Laplacian
      Finite-difference x-derivative with O(h^6) error (6 points)
      Finite-difference y-derivative with O(h^6) error (6 points)
      Finite-difference z-derivative with O(h^6) error (6 points)
    Max iterations: 1000
    Tolerance: 2.000000e-10

  Solvation:
    Cavity:  EffectivePotentialCavity
      Surface Calculator: GradientSurface with 3 nn
      Volume Calculator: KB51Volume
        compressibility: 72.57860092224
        temperature:     298.15
      EffectivePotentialCavity
        Potential: Power12Potential
          u0: 0.18eV
          pbc_cutoff: 1e-06
          tiny: 1e-10
        temperature: 298.15K    Dielectric:
      Type: LinearDielectric
      Solvent dielectric constant: 1.77    Interaction: SurfaceInteraction
      subscript: surf
      Surface_tension: 0.0011484376791625194 eV/(Angstrom^2)
XC parameters: PBE with 2 nearest neighbor stencil

Memory estimate:
  Process memory now: 265.03 MiB
  Calculator: 48.72 MiB
    Density: 4.72 MiB
      Arrays: 3.43 MiB
      Localized functions: 0.55 MiB
      Mixer: 0.75 MiB
    Hamiltonian: 33.47 MiB
      Arrays: 2.24 MiB
      XC: 0.00 MiB
      Poisson: 2.57 MiB
      vbar: 0.04 MiB
      Solvation: 28.62 MiB
    Wavefunctions: 10.52 MiB
      Arrays psit_nG: 4.86 MiB
      Eigensolver: 5.60 MiB
      Projections: 0.00 MiB
      Projectors: 0.06 MiB

Total number of cores used: 16
Domain decomposition: 2 x 4 x 2

Number of atoms: 19
Number of atomic orbitals: 49
Number of bands in calculation: 39
Number of valence electrons: 58
Bands to converge: occupied

... initialized

Initializing position-dependent things.

Solvation position-dependent initialization:
  Atomic radii for Power12Potential:
    Type    Radius   No. of atoms
       H     1.090     9
       O     1.520     4
       N     1.550     1
       C     1.700     5

Density initialized from atomic densities
Creating initial wave functions:
  39 bands from LCAO basis set

          .------------------------------.  
         /|                              |  
        / |                              |  
       /  |                              |  
      /   |                              |  
     /    |                              |  
    /     |                              |  
   /      |                              |  
  /       |                              |  
 *        |                              |  
 |        |                              |  
 |        |         H   OH O             |  
 |        |      H  OC   CO              |  
 |        |        C H                   |  
 |        |      H HC H                  |  
 |        |       H                      |  
 |        .------------------------------.  
 |       /                              /   
 |      /                              /    
 |     /                              /     
 |    /                              /      
 |   /                              /       
 |  /                              /        
 | /                              /         
 |/                              /          
 *------------------------------*           

Positions:
   0 N      5.244284    9.126258    5.218114    ( 0.0000,  0.0000,  0.0000)
   1 C      6.121769    8.286423    6.103186    ( 0.0000,  0.0000,  0.0000)
   2 C      7.521264    8.948095    6.102167    ( 0.0000,  0.0000,  0.0000)
   3 O      7.665145   10.034293    5.492983    ( 0.0000,  0.0000,  0.0000)
   4 H      4.370838    9.403765    5.679584    ( 0.0000,  0.0000,  0.0000)
   5 H      5.001405    8.646386    4.343524    ( 0.0000,  0.0000,  0.0000)
   6 H      5.718045    8.387552    7.119462    ( 0.0000,  0.0000,  0.0000)
   7 C      6.131891    6.799075    5.689528    ( 0.0000,  0.0000,  0.0000)
   8 C      5.877823    5.781425    6.808498    ( 0.0000,  0.0000,  0.0000)
   9 C      6.979576    5.393064    7.781098    ( 0.0000,  0.0000,  0.0000)
  10 O      8.057083    6.148937    7.919957    ( 0.0000,  0.0000,  0.0000)
  11 O      6.860137    4.365707    8.456476    ( 0.0000,  0.0000,  0.0000)
  12 H      7.064099    6.559421    5.157584    ( 0.0000,  0.0000,  0.0000)
  13 H      5.325614    6.644445    4.958761    ( 0.0000,  0.0000,  0.0000)
  14 H      5.561549    4.833832    6.350531    ( 0.0000,  0.0000,  0.0000)
  15 H      5.025076    6.100971    7.431700    ( 0.0000,  0.0000,  0.0000)
  16 O      8.429162    8.326609    6.746932    ( 0.0000,  0.0000,  0.0000)
  17 H      8.097771    7.044565    7.358114    ( 0.0000,  0.0000,  0.0000)
  18 H      5.804982    9.972853    4.985345    ( 0.0000,  0.0000,  0.0000)

Unit cell:
           periodic     x           y           z      points  spacing
  1. axis:    no    12.800000    0.000000    0.000000    64     0.2000
  2. axis:    no     0.000000   14.400000    0.000000    72     0.2000
  3. axis:    no     0.000000    0.000000   12.800000    64     0.2000

  Lengths:  12.800000  14.400000  12.800000
  Angles:   90.000000  90.000000  90.000000

Effective grid spacing dv^(1/3) = 0.2000

     iter     time        total  log10-change:
                         energy   eigst   dens
iter:   1 21:48:14  -124.677455
iter:   2 21:48:15  -117.795833   +0.63  -0.75
iter:   3 21:48:16  -115.975662   +0.53  -0.96
iter:   4 21:48:17  -115.711649   -0.17  -1.20
iter:   5 21:48:17  -115.709093   -0.73  -1.57
iter:   6 21:48:18  -115.701224c  -1.25  -2.09
iter:   7 21:48:19  -115.701459c  -1.95  -2.52
iter:   8 21:48:19  -115.701133c  -2.41  -2.70
iter:   9 21:48:20  -115.701294c  -2.84  -3.03
iter:  10 21:48:20  -115.701336c  -3.19  -3.21
iter:  11 21:48:21  -115.701508c  -3.67  -3.67
iter:  12 21:48:21  -115.701449c  -3.98  -3.82
iter:  13 21:48:22  -115.701348c  -4.34  -4.12c
iter:  14 21:48:22  -115.701473c  -4.66  -4.25c
iter:  15 21:48:23  -115.701496c  -5.01  -4.67c
iter:  16 21:48:23  -115.701472c  -5.34  -4.72c
iter:  17 21:48:23  -115.701455c  -5.74  -4.88c
iter:  18 21:48:24  -115.701503c  -6.13  -5.35c
iter:  19 21:48:24  -115.701535c  -6.40  -5.43c
iter:  20 21:48:24  -115.701527c  -6.67  -5.62c
iter:  21 21:48:25  -115.701466c  -6.99  -5.98c
iter:  22 21:48:25  -115.701435c  -7.35  -6.19c
iter:  23 21:48:25  -115.701442c  -7.67c -6.54c

Converged after 23 iterations.

Dipole moment: (-2.404961, 1.054576, -1.564038) |e|*Ang

Energy contributions relative to reference atoms: (reference = -14895.682746)

Kinetic:       +118.510437
Potential:     -132.256808
External:        -0.010546
XC:            -106.011584
Entropy (-ST):   +0.000000
Local:           +3.857485
Interactions  
 surf:           +0.209575
--------------------------
Free energy:   -115.701442
Extrapolated:  -115.701442

Solvation cavity surface area: 182.48668
Solvation cavity volume: 193.84168
 Band  Eigenvalues  Occupancy
    0    -26.71821    2.00000
    1    -26.51730    2.00000
    2    -25.70636    2.00000
    3    -24.40785    2.00000
    4    -24.02560    2.00000
    5    -20.62675    2.00000
    6    -18.57998    2.00000
    7    -16.62225    2.00000
    8    -15.52100    2.00000
    9    -14.98436    2.00000
   10    -14.57515    2.00000
   11    -13.81423    2.00000
   12    -12.81449    2.00000
   13    -12.74794    2.00000
   14    -11.53344    2.00000
   15    -11.03682    2.00000
   16    -10.81116    2.00000
   17    -10.68489    2.00000
   18    -10.29726    2.00000
   19     -9.92833    2.00000
   20     -9.53314    2.00000
   21     -9.47575    2.00000
   22     -8.94050    2.00000
   23     -8.06939    2.00000
   24     -6.93431    2.00000
   25     -6.66240    2.00000
   26     -6.51317    2.00000
   27     -6.27493    2.00000
   28     -5.74644    2.00000
   29     -1.72450    0.00000
   30     -0.97869    0.00000
   31     -0.64422    0.00000
   32     -0.62527    0.00000
   33     -0.40254    0.00000
   34      0.00971    0.00000
   35      0.16478    0.00000
   36      0.60892    0.00000
   37      0.82676    0.00000
   38      1.27991    0.00000

Fermi level: -3.73547

Gap: 4.022 eV
Transition (v -> c):
  (s=0, k=0, n=28, [0.00, 0.00, 0.00]) -> (s=0, k=0, n=29, [0.00, 0.00, 0.00])
Input parameters:
  external: {direction: [0. 0. 1.],
             name: ConstantElectricField,
             strength: 0.01}

Initialize ...

species:
  N:
    name: Nitrogen
    id: f7500608b86eaa90eef8b1d9a670dc53
    Z: 7.0
    valence: 5
    core: 2
    charge: 0.0
    file: /home/fr/fr_fr/fr_ez1021/source/gpaw-setups/gpaw-setups-0.9.20000/N.PBE.gz
    compensation charges: {type: gauss,
                           rc: 0.18,
                           lmax: 2}
    cutoffs: {filter: 1.11,
              core: 0.96}
    valence states:
      #              energy  rcut
      - 2s(2.00)   -18.583   0.603
      - 2p(3.00)    -7.089   0.529
      -  s           8.629   0.603
      -  p          20.123   0.529
      -  d           0.000   0.577
  
    # Using partial waves for N as LCAO basis

  C:
    name: Carbon
    id: 4aa54d4b901d75f77cc0ea3eec22967b
    Z: 6.0
    valence: 4
    core: 2
    charge: 0.0
    file: /home/fr/fr_fr/fr_ez1021/source/gpaw-setups/gpaw-setups-0.9.20000/C.PBE.gz
    compensation charges: {type: gauss,
                           rc: 0.20,
                           lmax: 2}
    cutoffs: {filter: 1.14,
              core: 1.14}
    valence states:
      #              energy  rcut
      - 2s(2.00)   -13.751   0.635
      - 2p(2.00)    -5.284   0.635
      -  s          13.461   0.635
      -  p          21.927   0.635
      -  d           0.000   0.635
  
    # Using partial waves for C as LCAO basis

  O:
    name: Oxygen
    id: 32ecd46bf208036f09c70b0ec9a88b78
    Z: 8.0
    valence: 6
    core: 2
    charge: 0.0
    file: /home/fr/fr_fr/fr_ez1021/source/gpaw-setups/gpaw-setups-0.9.20000/O.PBE.gz
    compensation charges: {type: gauss,
                           rc: 0.21,
                           lmax: 2}
    cutoffs: {filter: 1.17,
              core: 0.83}
    valence states:
      #              energy  rcut
      - 2s(2.00)   -23.961   0.688
      - 2p(4.00)    -9.029   0.598
      -  s           3.251   0.688
      -  p          18.182   0.598
      -  d           0.000   0.619
  
    # Using partial waves for O as LCAO basis

  H:
    name: Hydrogen
    id: d65de229564ff8ea4db303e23b6d1ecf
    Z: 1.0
    valence: 1
    core: 0
    charge: 0.0
    file: /home/fr/fr_fr/fr_ez1021/source/gpaw-setups/gpaw-setups-0.9.20000/H.PBE.gz
    compensation charges: {type: gauss,
                           rc: 0.15,
                           lmax: 2}
    cutoffs: {filter: 0.85,
              core: 0.53}
    valence states:
      #              energy  rcut
      - 1s(1.00)    -6.494   0.476
      -  s          20.717   0.476
      -  p           0.000   0.476
  
    # Using partial waves for H as LCAO basis

Reference energy: -14895.682746  # eV

Spin-paired calculation

Convergence criteria:
 Maximum [total energy] change in last 3 cyles: 0.0005 eV / valence electron
 Maximum integral of absolute [dens]ity change: 0.0001 electrons / valence electron
 Maximum integral of absolute [eigenst]ate change: 4e-08 eV^2 / valence electron
 Maximum number of scf [iter]ations: 333
 (Square brackets indicate name in SCF output, whereas a 'c' in
 the SCF output indicates the quantity has converged.)

Symmetries present (total): 1

  ( 1  0  0)
  ( 0  1  0)
  ( 0  0  1)

1 k-point (Gamma)
1 k-point in the irreducible part of the Brillouin zone
       k-points in crystal coordinates                weights
   0:     0.00000000    0.00000000    0.00000000          1/1

Wave functions: Uniform real-space grid
  Kinetic energy operator: 6*3+1=19 point O(h^6) finite-difference Laplacian
  ScaLapack parameters: grid=1x1, blocksize=None
  Wavefunction extrapolation:
    Improved wavefunction reuse through dual PAW basis 

Occupation numbers: # Zero width 

Eigensolver
   Davidson(niter=2) 

Densities:
  Coarse grid: 64*72*64 grid
  Fine grid: 128*144*128 grid
  Total Charge: 0.000000 

Density mixing:
  Method: separate
  Backend: pulay
  Linear mixing parameter: 0.25
  old densities: 3
  Damping of long wavelength oscillations: 1  # (no daming) 

Hamiltonian:
  XC and Coulomb potentials evaluated on a 128*144*128 grid
  Using the PBE Exchange-Correlation functional
  External potential:
    Constant electric field: (0.000, 0.000, 0.010) V/Ang
  Interpolation: tri-quintic (5. degree polynomial)
  Poisson solver: Jacobi weighted FD solver with dielectric and 5 multi-grid levels
    Coarsest grid: 8 x 9 x 8 points
    Stencil: Weighted Finite Difference Operator
      6*3+1=19 point O(h^6) finite-difference Laplacian
      Finite-difference x-derivative with O(h^6) error (6 points)
      Finite-difference y-derivative with O(h^6) error (6 points)
      Finite-difference z-derivative with O(h^6) error (6 points)
    Max iterations: 1000
    Tolerance: 2.000000e-10

  Solvation:
    Cavity:  EffectivePotentialCavity
      Surface Calculator: GradientSurface with 3 nn
      Volume Calculator: KB51Volume
        compressibility: 72.57860092224
        temperature:     298.15
      EffectivePotentialCavity
        Potential: Power12Potential
          u0: 0.18eV
          pbc_cutoff: 1e-06
          tiny: 1e-10
        temperature: 298.15K    Dielectric:
      Type: LinearDielectric
      Solvent dielectric constant: 1.77    Interaction: SurfaceInteraction
      subscript: surf
      Surface_tension: 0.0011484376791625194 eV/(Angstrom^2)
XC parameters: PBE with 2 nearest neighbor stencil

Memory estimate:
  Process memory now: 272.20 MiB
  Calculator: 48.72 MiB
    Density: 4.72 MiB
      Arrays: 3.43 MiB
      Localized functions: 0.55 MiB
      Mixer: 0.75 MiB
    Hamiltonian: 33.47 MiB
      Arrays: 2.24 MiB
      XC: 0.00 MiB
      Poisson: 2.57 MiB
      vbar: 0.04 MiB
      Solvation: 28.62 MiB
    Wavefunctions: 10.52 MiB
      Arrays psit_nG: 4.86 MiB
      Eigensolver: 5.60 MiB
      Projections: 0.00 MiB
      Projectors: 0.06 MiB

Total number of cores used: 16
Domain decomposition: 2 x 4 x 2

Number of atoms: 19
Number of atomic orbitals: 49
Number of bands in calculation: 39
Number of valence electrons: 58
Bands to converge: occupied

... initialized

Initializing position-dependent things.

Solvation position-dependent initialization:
  Atomic radii for Power12Potential:
    Type    Radius   No. of atoms
       H     1.090     9
       O     1.520     4
       N     1.550     1
       C     1.700     5

Density initialized from atomic densities
Creating initial wave functions:
  39 bands from LCAO basis set

          .------------------------------.  
         /|                              |  
        / |                              |  
       /  |                              |  
      /   |                              |  
     /    |                              |  
    /     |                              |  
   /      |                              |  
  /       |                              |  
 *        |                              |  
 |        |                              |  
 |        |         H   OH O             |  
 |        |      H  OC   CO              |  
 |        |        C H                   |  
 |        |      H HC H                  |  
 |        |       H                      |  
 |        .------------------------------.  
 |       /                              /   
 |      /                              /    
 |     /                              /     
 |    /                              /      
 |   /                              /       
 |  /                              /        
 | /                              /         
 |/                              /          
 *------------------------------*           

Positions:
   0 N      5.244284    9.126258    5.218114    ( 0.0000,  0.0000,  0.0000)
   1 C      6.121769    8.286423    6.103186    ( 0.0000,  0.0000,  0.0000)
   2 C      7.521264    8.948095    6.102167    ( 0.0000,  0.0000,  0.0000)
   3 O      7.665145   10.034293    5.492983    ( 0.0000,  0.0000,  0.0000)
   4 H      4.370838    9.403765    5.679584    ( 0.0000,  0.0000,  0.0000)
   5 H      5.001405    8.646386    4.343524    ( 0.0000,  0.0000,  0.0000)
   6 H      5.718045    8.387552    7.119462    ( 0.0000,  0.0000,  0.0000)
   7 C      6.131891    6.799075    5.689528    ( 0.0000,  0.0000,  0.0000)
   8 C      5.877823    5.781425    6.808498    ( 0.0000,  0.0000,  0.0000)
   9 C      6.979576    5.393064    7.781098    ( 0.0000,  0.0000,  0.0000)
  10 O      8.057083    6.148937    7.919957    ( 0.0000,  0.0000,  0.0000)
  11 O      6.860137    4.365707    8.456476    ( 0.0000,  0.0000,  0.0000)
  12 H      7.064099    6.559421    5.157584    ( 0.0000,  0.0000,  0.0000)
  13 H      5.325614    6.644445    4.958761    ( 0.0000,  0.0000,  0.0000)
  14 H      5.561549    4.833832    6.350531    ( 0.0000,  0.0000,  0.0000)
  15 H      5.025076    6.100971    7.431700    ( 0.0000,  0.0000,  0.0000)
  16 O      8.429162    8.326609    6.746932    ( 0.0000,  0.0000,  0.0000)
  17 H      8.097771    7.044565    7.358114    ( 0.0000,  0.0000,  0.0000)
  18 H      5.804982    9.972853    4.985345    ( 0.0000,  0.0000,  0.0000)

Unit cell:
           periodic     x           y           z      points  spacing
  1. axis:    no    12.800000    0.000000    0.000000    64     0.2000
  2. axis:    no     0.000000   14.400000    0.000000    72     0.2000
  3. axis:    no     0.000000    0.000000   12.800000    64     0.2000

  Lengths:  12.800000  14.400000  12.800000
  Angles:   90.000000  90.000000  90.000000

Effective grid spacing dv^(1/3) = 0.2000

     iter     time        total  log10-change:
                         energy   eigst   dens
iter:   1 21:48:27  -124.644908
iter:   2 21:48:28  -117.768043   +0.63  -0.75
iter:   3 21:48:29  -115.949466   +0.53  -0.96
iter:   4 21:48:29  -115.685631   -0.17  -1.20
iter:   5 21:48:30  -115.683055   -0.74  -1.57
iter:   6 21:48:31  -115.675174c  -1.25  -2.09
iter:   7 21:48:31  -115.675407c  -1.95  -2.52
iter:   8 21:48:32  -115.675082c  -2.41  -2.70
iter:   9 21:48:32  -115.675241c  -2.84  -3.03
iter:  10 21:48:33  -115.675283c  -3.19  -3.21
iter:  11 21:48:33  -115.675454c  -3.67  -3.67
iter:  12 21:48:34  -115.675395c  -3.99  -3.82
iter:  13 21:48:34  -115.675295c  -4.34  -4.12c
iter:  14 21:48:35  -115.675419c  -4.66  -4.25c
iter:  15 21:48:35  -115.675443c  -5.02  -4.67c
iter:  16 21:48:35  -115.675418c  -5.34  -4.72c
iter:  17 21:48:36  -115.675403c  -5.75  -4.88c
iter:  18 21:48:36  -115.675448c  -6.14  -5.35c
iter:  19 21:48:36  -115.675475c  -6.41  -5.43c
iter:  20 21:48:37  -115.675478c  -6.67  -5.60c
iter:  21 21:48:37  -115.675417c  -7.02  -5.96c
iter:  22 21:48:37  -115.675387c  -7.36  -6.14c
iter:  23 21:48:38  -115.675386c  -7.63c -6.42c

Converged after 23 iterations.

Dipole moment: (-2.404280, 1.039973, -1.552141) |e|*Ang

Energy contributions relative to reference atoms: (reference = -14895.682746)

Kinetic:       +118.523548
Potential:     -132.270777
External:        +0.015521
XC:            -106.010629
Entropy (-ST):   +0.000000
Local:           +3.857376
Interactions  
 surf:           +0.209575
--------------------------
Free energy:   -115.675386
Extrapolated:  -115.675386

Solvation cavity surface area: 182.48668
Solvation cavity volume: 193.84168
 Band  Eigenvalues  Occupancy
    0    -26.71633    2.00000
    1    -26.51361    2.00000
    2    -25.72594    2.00000
    3    -24.39303    2.00000
    4    -24.02994    2.00000
    5    -20.62870    2.00000
    6    -18.58115    2.00000
    7    -16.62486    2.00000
    8    -15.54197    2.00000
    9    -14.99645    2.00000
   10    -14.56707    2.00000
   11    -13.82724    2.00000
   12    -12.81615    2.00000
   13    -12.74694    2.00000
   14    -11.53096    2.00000
   15    -11.04010    2.00000
   16    -10.80663    2.00000
   17    -10.68181    2.00000
   18    -10.30307    2.00000
   19     -9.91749    2.00000
   20     -9.53057    2.00000
   21     -9.47615    2.00000
   22     -8.92764    2.00000
   23     -8.05480    2.00000
   24     -6.92346    2.00000
   25     -6.66350    2.00000
   26     -6.52773    2.00000
   27     -6.28108    2.00000
   28     -5.72078    2.00000
   29     -1.74779    0.00000
   30     -0.99275    0.00000
   31     -0.63624    0.00000
   32     -0.62417    0.00000
   33     -0.40990    0.00000
   34     -0.00732    0.00000
   35      0.14994    0.00000
   36      0.56744    0.00000
   37      0.81407    0.00000
   38      1.28804    0.00000

Fermi level: -3.73428

Gap: 3.973 eV
Transition (v -> c):
  (s=0, k=0, n=28, [0.00, 0.00, 0.00]) -> (s=0, k=0, n=29, [0.00, 0.00, 0.00])
Input parameters:
  external: None

Initialize ...

species:
  N:
    name: Nitrogen
    id: f7500608b86eaa90eef8b1d9a670dc53
    Z: 7.0
    valence: 5
    core: 2
    charge: 0.0
    file: /home/fr/fr_fr/fr_ez1021/source/gpaw-setups/gpaw-setups-0.9.20000/N.PBE.gz
    compensation charges: {type: gauss,
                           rc: 0.18,
                           lmax: 2}
    cutoffs: {filter: 1.11,
              core: 0.96}
    valence states:
      #              energy  rcut
      - 2s(2.00)   -18.583   0.603
      - 2p(3.00)    -7.089   0.529
      -  s           8.629   0.603
      -  p          20.123   0.529
      -  d           0.000   0.577
  
    # Using partial waves for N as LCAO basis

  C:
    name: Carbon
    id: 4aa54d4b901d75f77cc0ea3eec22967b
    Z: 6.0
    valence: 4
    core: 2
    charge: 0.0
    file: /home/fr/fr_fr/fr_ez1021/source/gpaw-setups/gpaw-setups-0.9.20000/C.PBE.gz
    compensation charges: {type: gauss,
                           rc: 0.20,
                           lmax: 2}
    cutoffs: {filter: 1.14,
              core: 1.14}
    valence states:
      #              energy  rcut
      - 2s(2.00)   -13.751   0.635
      - 2p(2.00)    -5.284   0.635
      -  s          13.461   0.635
      -  p          21.927   0.635
      -  d           0.000   0.635
  
    # Using partial waves for C as LCAO basis

  O:
    name: Oxygen
    id: 32ecd46bf208036f09c70b0ec9a88b78
    Z: 8.0
    valence: 6
    core: 2
    charge: 0.0
    file: /home/fr/fr_fr/fr_ez1021/source/gpaw-setups/gpaw-setups-0.9.20000/O.PBE.gz
    compensation charges: {type: gauss,
                           rc: 0.21,
                           lmax: 2}
    cutoffs: {filter: 1.17,
              core: 0.83}
    valence states:
      #              energy  rcut
      - 2s(2.00)   -23.961   0.688
      - 2p(4.00)    -9.029   0.598
      -  s           3.251   0.688
      -  p          18.182   0.598
      -  d           0.000   0.619
  
    # Using partial waves for O as LCAO basis

  H:
    name: Hydrogen
    id: d65de229564ff8ea4db303e23b6d1ecf
    Z: 1.0
    valence: 1
    core: 0
    charge: 0.0
    file: /home/fr/fr_fr/fr_ez1021/source/gpaw-setups/gpaw-setups-0.9.20000/H.PBE.gz
    compensation charges: {type: gauss,
                           rc: 0.15,
                           lmax: 2}
    cutoffs: {filter: 0.85,
              core: 0.53}
    valence states:
      #              energy  rcut
      - 1s(1.00)    -6.494   0.476
      -  s          20.717   0.476
      -  p           0.000   0.476
  
    # Using partial waves for H as LCAO basis

Reference energy: -14895.682746  # eV

Spin-paired calculation

Convergence criteria:
 Maximum [total energy] change in last 3 cyles: 0.0005 eV / valence electron
 Maximum integral of absolute [dens]ity change: 0.0001 electrons / valence electron
 Maximum integral of absolute [eigenst]ate change: 4e-08 eV^2 / valence electron
 Maximum number of scf [iter]ations: 333
 (Square brackets indicate name in SCF output, whereas a 'c' in
 the SCF output indicates the quantity has converged.)

Symmetries present (total): 1

  ( 1  0  0)
  ( 0  1  0)
  ( 0  0  1)

1 k-point (Gamma)
1 k-point in the irreducible part of the Brillouin zone
       k-points in crystal coordinates                weights
   0:     0.00000000    0.00000000    0.00000000          1/1

Wave functions: Uniform real-space grid
  Kinetic energy operator: 6*3+1=19 point O(h^6) finite-difference Laplacian
  ScaLapack parameters: grid=1x1, blocksize=None
  Wavefunction extrapolation:
    Improved wavefunction reuse through dual PAW basis 

Occupation numbers: # Zero width 

Eigensolver
   Davidson(niter=2) 

Densities:
  Coarse grid: 64*72*64 grid
  Fine grid: 128*144*128 grid
  Total Charge: 0.000000 

Density mixing:
  Method: separate
  Backend: pulay
  Linear mixing parameter: 0.25
  old densities: 3
  Damping of long wavelength oscillations: 1  # (no daming) 

Hamiltonian:
  XC and Coulomb potentials evaluated on a 128*144*128 grid
  Using the PBE Exchange-Correlation functional
  Interpolation: tri-quintic (5. degree polynomial)
  Poisson solver: Jacobi weighted FD solver with dielectric and 5 multi-grid levels
    Coarsest grid: 8 x 9 x 8 points
    Stencil: Weighted Finite Difference Operator
      6*3+1=19 point O(h^6) finite-difference Laplacian
      Finite-difference x-derivative with O(h^6) error (6 points)
      Finite-difference y-derivative with O(h^6) error (6 points)
      Finite-difference z-derivative with O(h^6) error (6 points)
    Max iterations: 1000
    Tolerance: 2.000000e-10

  Solvation:
    Cavity:  EffectivePotentialCavity
      Surface Calculator: GradientSurface with 3 nn
      Volume Calculator: KB51Volume
        compressibility: 72.57860092224
        temperature:     298.15
      EffectivePotentialCavity
        Potential: Power12Potential
          u0: 0.18eV
          pbc_cutoff: 1e-06
          tiny: 1e-10
        temperature: 298.15K    Dielectric:
      Type: LinearDielectric
      Solvent dielectric constant: 1.77    Interaction: SurfaceInteraction
      subscript: surf
      Surface_tension: 0.0011484376791625194 eV/(Angstrom^2)
XC parameters: PBE with 2 nearest neighbor stencil

Memory estimate:
  Process memory now: 273.39 MiB
  Calculator: 48.72 MiB
    Density: 4.72 MiB
      Arrays: 3.43 MiB
      Localized functions: 0.55 MiB
      Mixer: 0.75 MiB
    Hamiltonian: 33.47 MiB
      Arrays: 2.24 MiB
      XC: 0.00 MiB
      Poisson: 2.57 MiB
      vbar: 0.04 MiB
      Solvation: 28.62 MiB
    Wavefunctions: 10.52 MiB
      Arrays psit_nG: 4.86 MiB
      Eigensolver: 5.60 MiB
      Projections: 0.00 MiB
      Projectors: 0.06 MiB

Total number of cores used: 16
Domain decomposition: 2 x 4 x 2

Number of atoms: 19
Number of atomic orbitals: 49
Number of bands in calculation: 39
Number of valence electrons: 58
Bands to converge: occupied

... initialized

Initializing position-dependent things.

Solvation position-dependent initialization:
  Atomic radii for Power12Potential:
    Type    Radius   No. of atoms
       H     1.090     9
       O     1.520     4
       N     1.550     1
       C     1.700     5

Density initialized from atomic densities
Creating initial wave functions:
  39 bands from LCAO basis set

          .------------------------------.  
         /|                              |  
        / |                              |  
       /  |                              |  
      /   |                              |  
     /    |                              |  
    /     |                              |  
   /      |                              |  
  /       |                              |  
 *        |                              |  
 |        |                              |  
 |        |         H   OH O             |  
 |        |      H  OC   CO              |  
 |        |        C H                   |  
 |        |      H HC H                  |  
 |        |       H                      |  
 |        .------------------------------.  
 |       /                              /   
 |      /                              /    
 |     /                              /     
 |    /                              /      
 |   /                              /       
 |  /                              /        
 | /                              /         
 |/                              /          
 *------------------------------*           

Positions:
   0 N      5.244284    9.126258    5.218114    ( 0.0000,  0.0000,  0.0000)
   1 C      6.121769    8.286423    6.103186    ( 0.0000,  0.0000,  0.0000)
   2 C      7.521264    8.948095    6.102167    ( 0.0000,  0.0000,  0.0000)
   3 O      7.665145   10.034293    5.492983    ( 0.0000,  0.0000,  0.0000)
   4 H      4.370838    9.403765    5.679584    ( 0.0000,  0.0000,  0.0000)
   5 H      5.001405    8.646386    4.343524    ( 0.0000,  0.0000,  0.0000)
   6 H      5.718045    8.387552    7.119462    ( 0.0000,  0.0000,  0.0000)
   7 C      6.131891    6.799075    5.689528    ( 0.0000,  0.0000,  0.0000)
   8 C      5.877823    5.781425    6.808498    ( 0.0000,  0.0000,  0.0000)
   9 C      6.979576    5.393064    7.781098    ( 0.0000,  0.0000,  0.0000)
  10 O      8.057083    6.148937    7.919957    ( 0.0000,  0.0000,  0.0000)
  11 O      6.860137    4.365707    8.456476    ( 0.0000,  0.0000,  0.0000)
  12 H      7.064099    6.559421    5.157584    ( 0.0000,  0.0000,  0.0000)
  13 H      5.325614    6.644445    4.958761    ( 0.0000,  0.0000,  0.0000)
  14 H      5.561549    4.833832    6.350531    ( 0.0000,  0.0000,  0.0000)
  15 H      5.025076    6.100971    7.431700    ( 0.0000,  0.0000,  0.0000)
  16 O      8.429162    8.326609    6.746932    ( 0.0000,  0.0000,  0.0000)
  17 H      8.097771    7.044565    7.358114    ( 0.0000,  0.0000,  0.0000)
  18 H      5.804982    9.972853    4.985345    ( 0.0000,  0.0000,  0.0000)

Unit cell:
           periodic     x           y           z      points  spacing
  1. axis:    no    12.800000    0.000000    0.000000    64     0.2000
  2. axis:    no     0.000000   14.400000    0.000000    72     0.2000
  3. axis:    no     0.000000    0.000000   12.800000    64     0.2000

  Lengths:  12.800000  14.400000  12.800000
  Angles:   90.000000  90.000000  90.000000

Effective grid spacing dv^(1/3) = 0.2000

     iter     time        total  log10-change:
                         energy   eigst   dens
iter:   1 21:48:40  -124.664585
iter:   2 21:48:40  -117.784620   +0.63  -0.75
iter:   3 21:48:41  -115.965109   +0.53  -0.96
iter:   4 21:48:42  -115.701208   -0.17  -1.20
iter:   5 21:48:43  -115.698619   -0.74  -1.57
iter:   6 21:48:43  -115.690739c  -1.25  -2.09
iter:   7 21:48:44  -115.690975c  -1.95  -2.52
iter:   8 21:48:44  -115.690649c  -2.41  -2.70
iter:   9 21:48:45  -115.690810c  -2.84  -3.03
iter:  10 21:48:45  -115.690852c  -3.19  -3.21
iter:  11 21:48:46  -115.691023c  -3.67  -3.67
iter:  12 21:48:46  -115.690964c  -3.99  -3.82
iter:  13 21:48:47  -115.690863c  -4.34  -4.12c
iter:  14 21:48:47  -115.690988c  -4.66  -4.25c
iter:  15 21:48:48  -115.691012c  -5.02  -4.67c
iter:  16 21:48:48  -115.690987c  -5.34  -4.72c
iter:  17 21:48:48  -115.690971c  -5.75  -4.88c
iter:  18 21:48:49  -115.691017c  -6.14  -5.35c
iter:  19 21:48:49  -115.691046c  -6.41  -5.43c
iter:  20 21:48:50  -115.691045c  -6.67  -5.61c
iter:  21 21:48:50  -115.690985c  -7.01  -5.98c
iter:  22 21:48:50  -115.690954c  -7.36  -6.16c
iter:  23 21:48:51  -115.690955c  -7.64c -6.46c

Converged after 23 iterations.

Dipole moment: (-2.405378, 1.042388, -1.561624) |e|*Ang

Energy contributions relative to reference atoms: (reference = -14895.682746)

Kinetic:       +118.518455
Potential:     -132.264330
External:        +0.000000
XC:            -106.012107
Entropy (-ST):   +0.000000
Local:           +3.857452
Interactions  
 surf:           +0.209575
--------------------------
Free energy:   -115.690955
Extrapolated:  -115.690955

Solvation cavity surface area: 182.48668
Solvation cavity volume: 193.84168
 Band  Eigenvalues  Occupancy
    0    -26.71932    2.00000
    1    -26.51802    2.00000
    2    -25.72002    2.00000
    3    -24.40089    2.00000
    4    -24.03186    2.00000
    5    -20.62666    2.00000
    6    -18.58089    2.00000
    7    -16.62282    2.00000
    8    -15.53518    2.00000
    9    -14.99207    2.00000
   10    -14.57230    2.00000
   11    -13.82354    2.00000
   12    -12.81557    2.00000
   13    -12.74814    2.00000
   14    -11.53260    2.00000
   15    -11.04081    2.00000
   16    -10.80802    2.00000
   17    -10.68465    2.00000
   18    -10.30375    2.00000
   19     -9.92093    2.00000
   20     -9.53248    2.00000
   21     -9.47747    2.00000
   22     -8.93234    2.00000
   23     -8.06243    2.00000
   24     -6.93016    2.00000
   25     -6.66693    2.00000
   26     -6.52572    2.00000
   27     -6.28212    2.00000
   28     -5.73233    2.00000
   29     -1.73999    0.00000
   30     -0.98529    0.00000
   31     -0.63600    0.00000
   32     -0.62368    0.00000
   33     -0.40975    0.00000
   34      0.00507    0.00000
   35      0.15355    0.00000
   36      0.58606    0.00000
   37      0.81989    0.00000
   38      1.28809    0.00000

Fermi level: -3.73616

Gap: 3.992 eV
Transition (v -> c):
  (s=0, k=0, n=28, [0.00, 0.00, 0.00]) -> (s=0, k=0, n=29, [0.00, 0.00, 0.00])
Input parameters:
  external: {direction: [1. 0. 0.],
             name: ConstantElectricField,
             strength: 0.01169603524229075}

Initialize ...

species:
  N:
    name: Nitrogen
    id: f7500608b86eaa90eef8b1d9a670dc53
    Z: 7.0
    valence: 5
    core: 2
    charge: 0.0
    file: /home/fr/fr_fr/fr_ez1021/source/gpaw-setups/gpaw-setups-0.9.20000/N.PBE.gz
    compensation charges: {type: gauss,
                           rc: 0.18,
                           lmax: 2}
    cutoffs: {filter: 1.11,
              core: 0.96}
    valence states:
      #              energy  rcut
      - 2s(2.00)   -18.583   0.603
      - 2p(3.00)    -7.089   0.529
      -  s           8.629   0.603
      -  p          20.123   0.529
      -  d           0.000   0.577
  
    # Using partial waves for N as LCAO basis

  C:
    name: Carbon
    id: 4aa54d4b901d75f77cc0ea3eec22967b
    Z: 6.0
    valence: 4
    core: 2
    charge: 0.0
    file: /home/fr/fr_fr/fr_ez1021/source/gpaw-setups/gpaw-setups-0.9.20000/C.PBE.gz
    compensation charges: {type: gauss,
                           rc: 0.20,
                           lmax: 2}
    cutoffs: {filter: 1.14,
              core: 1.14}
    valence states:
      #              energy  rcut
      - 2s(2.00)   -13.751   0.635
      - 2p(2.00)    -5.284   0.635
      -  s          13.461   0.635
      -  p          21.927   0.635
      -  d           0.000   0.635
  
    # Using partial waves for C as LCAO basis

  O:
    name: Oxygen
    id: 32ecd46bf208036f09c70b0ec9a88b78
    Z: 8.0
    valence: 6
    core: 2
    charge: 0.0
    file: /home/fr/fr_fr/fr_ez1021/source/gpaw-setups/gpaw-setups-0.9.20000/O.PBE.gz
    compensation charges: {type: gauss,
                           rc: 0.21,
                           lmax: 2}
    cutoffs: {filter: 1.17,
              core: 0.83}
    valence states:
      #              energy  rcut
      - 2s(2.00)   -23.961   0.688
      - 2p(4.00)    -9.029   0.598
      -  s           3.251   0.688
      -  p          18.182   0.598
      -  d           0.000   0.619
  
    # Using partial waves for O as LCAO basis

  H:
    name: Hydrogen
    id: d65de229564ff8ea4db303e23b6d1ecf
    Z: 1.0
    valence: 1
    core: 0
    charge: 0.0
    file: /home/fr/fr_fr/fr_ez1021/source/gpaw-setups/gpaw-setups-0.9.20000/H.PBE.gz
    compensation charges: {type: gauss,
                           rc: 0.15,
                           lmax: 2}
    cutoffs: {filter: 0.85,
              core: 0.53}
    valence states:
      #              energy  rcut
      - 1s(1.00)    -6.494   0.476
      -  s          20.717   0.476
      -  p           0.000   0.476
  
    # Using partial waves for H as LCAO basis

Reference energy: -14895.682746  # eV

Spin-paired calculation

Convergence criteria:
 Maximum [total energy] change in last 3 cyles: 0.0005 eV / valence electron
 Maximum integral of absolute [dens]ity change: 0.0001 electrons / valence electron
 Maximum integral of absolute [eigenst]ate change: 4e-08 eV^2 / valence electron
 Maximum number of scf [iter]ations: 333
 (Square brackets indicate name in SCF output, whereas a 'c' in
 the SCF output indicates the quantity has converged.)

Symmetries present (total): 1

  ( 1  0  0)
  ( 0  1  0)
  ( 0  0  1)

1 k-point (Gamma)
1 k-point in the irreducible part of the Brillouin zone
       k-points in crystal coordinates                weights
   0:     0.00000000    0.00000000    0.00000000          1/1

Wave functions: Uniform real-space grid
  Kinetic energy operator: 6*3+1=19 point O(h^6) finite-difference Laplacian
  ScaLapack parameters: grid=1x1, blocksize=None
  Wavefunction extrapolation:
    Improved wavefunction reuse through dual PAW basis 

Occupation numbers: # Zero width 

Eigensolver
   Davidson(niter=2) 

Densities:
  Coarse grid: 64*72*64 grid
  Fine grid: 128*144*128 grid
  Total Charge: 0.000000 

Density mixing:
  Method: separate
  Backend: pulay
  Linear mixing parameter: 0.25
  old densities: 3
  Damping of long wavelength oscillations: 1  # (no daming) 

Hamiltonian:
  XC and Coulomb potentials evaluated on a 128*144*128 grid
  Using the PBE Exchange-Correlation functional
  External potential:
    Constant electric field: (0.012, 0.000, 0.000) V/Ang
  Interpolation: tri-quintic (5. degree polynomial)
  Poisson solver: Jacobi weighted FD solver with dielectric and 5 multi-grid levels
    Coarsest grid: 8 x 9 x 8 points
    Stencil: Weighted Finite Difference Operator
      6*3+1=19 point O(h^6) finite-difference Laplacian
      Finite-difference x-derivative with O(h^6) error (6 points)
      Finite-difference y-derivative with O(h^6) error (6 points)
      Finite-difference z-derivative with O(h^6) error (6 points)
    Max iterations: 1000
    Tolerance: 2.000000e-10

  Solvation:
    Cavity:  EffectivePotentialCavity
      Surface Calculator: GradientSurface with 3 nn
      Volume Calculator: KB51Volume
        compressibility: 72.57860092224
        temperature:     298.15
      EffectivePotentialCavity
        Potential: Power12Potential
          u0: 0.18eV
          pbc_cutoff: 1e-06
          tiny: 1e-10
        temperature: 298.15K    Dielectric:
      Type: LinearDielectric
      Solvent dielectric constant: 1.77    Interaction: SurfaceInteraction
      subscript: surf
      Surface_tension: 0.0011484376791625194 eV/(Angstrom^2)
XC parameters: PBE with 2 nearest neighbor stencil

Memory estimate:
  Process memory now: 274.43 MiB
  Calculator: 48.72 MiB
    Density: 4.72 MiB
      Arrays: 3.43 MiB
      Localized functions: 0.55 MiB
      Mixer: 0.75 MiB
    Hamiltonian: 33.47 MiB
      Arrays: 2.24 MiB
      XC: 0.00 MiB
      Poisson: 2.57 MiB
      vbar: 0.04 MiB
      Solvation: 28.62 MiB
    Wavefunctions: 10.52 MiB
      Arrays psit_nG: 4.86 MiB
      Eigensolver: 5.60 MiB
      Projections: 0.00 MiB
      Projectors: 0.06 MiB

Total number of cores used: 16
Domain decomposition: 2 x 4 x 2

Number of atoms: 19
Number of atomic orbitals: 49
Number of bands in calculation: 39
Number of valence electrons: 58
Bands to converge: occupied

... initialized

Initializing position-dependent things.

Solvation position-dependent initialization:
  Atomic radii for Power12Potential:
    Type    Radius   No. of atoms
       H     1.090     9
       O     1.520     4
       N     1.550     1
       C     1.700     5

Density initialized from atomic densities
Creating initial wave functions:
  39 bands from LCAO basis set

          .------------------------------.  
         /|                              |  
        / |                              |  
       /  |                              |  
      /   |                              |  
     /    |                              |  
    /     |                              |  
   /      |                              |  
  /       |                              |  
 *        |                              |  
 |        |                              |  
 |        |         H   OH O             |  
 |        |      H  OC   CO              |  
 |        |        C H                   |  
 |        |      H HC H                  |  
 |        |       H                      |  
 |        .------------------------------.  
 |       /                              /   
 |      /                              /    
 |     /                              /     
 |    /                              /      
 |   /                              /       
 |  /                              /        
 | /                              /         
 |/                              /          
 *------------------------------*           

Positions:
   0 N      5.244284    9.126258    5.218114    ( 0.0000,  0.0000,  0.0000)
   1 C      6.121769    8.286423    6.103186    ( 0.0000,  0.0000,  0.0000)
   2 C      7.521264    8.948095    6.102167    ( 0.0000,  0.0000,  0.0000)
   3 O      7.665145   10.034293    5.492983    ( 0.0000,  0.0000,  0.0000)
   4 H      4.370838    9.403765    5.679584    ( 0.0000,  0.0000,  0.0000)
   5 H      5.001405    8.646386    4.343524    ( 0.0000,  0.0000,  0.0000)
   6 H      5.718045    8.387552    7.119462    ( 0.0000,  0.0000,  0.0000)
   7 C      6.131891    6.799075    5.689528    ( 0.0000,  0.0000,  0.0000)
   8 C      5.877823    5.781425    6.808498    ( 0.0000,  0.0000,  0.0000)
   9 C      6.979576    5.393064    7.781098    ( 0.0000,  0.0000,  0.0000)
  10 O      8.057083    6.148937    7.919957    ( 0.0000,  0.0000,  0.0000)
  11 O      6.860137    4.365707    8.456476    ( 0.0000,  0.0000,  0.0000)
  12 H      7.064099    6.559421    5.157584    ( 0.0000,  0.0000,  0.0000)
  13 H      5.325614    6.644445    4.958761    ( 0.0000,  0.0000,  0.0000)
  14 H      5.561549    4.833832    6.350531    ( 0.0000,  0.0000,  0.0000)
  15 H      5.025076    6.100971    7.431700    ( 0.0000,  0.0000,  0.0000)
  16 O      8.429162    8.326609    6.746932    ( 0.0000,  0.0000,  0.0000)
  17 H      8.097771    7.044565    7.358114    ( 0.0000,  0.0000,  0.0000)
  18 H      5.804982    9.972853    4.985345    ( 0.0000,  0.0000,  0.0000)

Unit cell:
           periodic     x           y           z      points  spacing
  1. axis:    no    12.800000    0.000000    0.000000    64     0.2000
  2. axis:    no     0.000000   14.400000    0.000000    72     0.2000
  3. axis:    no     0.000000    0.000000   12.800000    64     0.2000

  Lengths:  12.800000  14.400000  12.800000
  Angles:   90.000000  90.000000  90.000000

Effective grid spacing dv^(1/3) = 0.2000

     iter     time        total  log10-change:
                         energy   eigst   dens
iter:   1 21:48:53  -124.627182
iter:   2 21:48:54  -117.754470   +0.63  -0.75
iter:   3 21:48:54  -115.936787   +0.53  -0.96
iter:   4 21:48:55  -115.673110   -0.17  -1.20
iter:   5 21:48:56  -115.670547   -0.74  -1.57
iter:   6 21:48:56  -115.662676c  -1.25  -2.09
iter:   7 21:48:57  -115.662911c  -1.95  -2.52
iter:   8 21:48:58  -115.662587c  -2.41  -2.70
iter:   9 21:48:58  -115.662747c  -2.84  -3.03
iter:  10 21:48:59  -115.662790c  -3.19  -3.21
iter:  11 21:48:59  -115.662961c  -3.67  -3.67
iter:  12 21:49:00  -115.662902c  -3.99  -3.82
iter:  13 21:49:00  -115.662802c  -4.34  -4.12c
iter:  14 21:49:01  -115.662926c  -4.66  -4.25c
iter:  15 21:49:01  -115.662950c  -5.02  -4.67c
iter:  16 21:49:02  -115.662925c  -5.34  -4.72c
iter:  17 21:49:02  -115.662909c  -5.75  -4.88c
iter:  18 21:49:02  -115.662957c  -6.14  -5.35c
iter:  19 21:49:03  -115.662988c  -6.40  -5.43c
iter:  20 21:49:03  -115.662980c  -6.68  -5.62c
iter:  21 21:49:04  -115.662920c  -6.99  -5.99c
iter:  22 21:49:04  -115.662889c  -7.35  -6.19c
iter:  23 21:49:04  -115.662896c  -7.67c -6.54c

Converged after 23 iterations.

Dipole moment: (-2.393156, 1.042873, -1.560340) |e|*Ang

Energy contributions relative to reference atoms: (reference = -14895.682746)

Kinetic:       +118.523665
Potential:     -132.273747
External:        +0.027990
XC:            -106.007675
Entropy (-ST):   +0.000000
Local:           +3.857296
Interactions  
 surf:           +0.209575
--------------------------
Free energy:   -115.662896
Extrapolated:  -115.662896

Solvation cavity surface area: 182.48668
Solvation cavity volume: 193.84168
 Band  Eigenvalues  Occupancy
    0    -26.71159    2.00000
    1    -26.51150    2.00000
    2    -25.72180    2.00000
    3    -24.39307    2.00000
    4    -24.02202    2.00000
    5    -20.62846    2.00000
    6    -18.58253    2.00000
    7    -16.62474    2.00000
    8    -15.54215    2.00000
    9    -14.99501    2.00000
   10    -14.56563    2.00000
   11    -13.82390    2.00000
   12    -12.81616    2.00000
   13    -12.74469    2.00000
   14    -11.53207    2.00000
   15    -11.03492    2.00000
   16    -10.80549    2.00000
   17    -10.67857    2.00000
   18    -10.29500    2.00000
   19     -9.91748    2.00000
   20     -9.52874    2.00000
   21     -9.47238    2.00000
   22     -8.93118    2.00000
   23     -8.05441    2.00000
   24     -6.92073    2.00000
   25     -6.65626    2.00000
   26     -6.51569    2.00000
   27     -6.27196    2.00000
   28     -5.72652    2.00000
   29     -1.75716    0.00000
   30     -0.99180    0.00000
   31     -0.64272    0.00000
   32     -0.62557    0.00000
   33     -0.41729    0.00000
   34      0.01410    0.00000
   35      0.14406    0.00000
   36      0.57635    0.00000
   37      0.80004    0.00000
   38      1.27499    0.00000

Fermi level: -3.74184

Gap: 3.969 eV
Transition (v -> c):
  (s=0, k=0, n=28, [0.00, 0.00, 0.00]) -> (s=0, k=0, n=29, [0.00, 0.00, 0.00])
Input parameters:
  external: {direction: [0. 1. 0.],
             name: ConstantElectricField,
             strength: 0.01169603524229075}

Initialize ...

species:
  N:
    name: Nitrogen
    id: f7500608b86eaa90eef8b1d9a670dc53
    Z: 7.0
    valence: 5
    core: 2
    charge: 0.0
    file: /home/fr/fr_fr/fr_ez1021/source/gpaw-setups/gpaw-setups-0.9.20000/N.PBE.gz
    compensation charges: {type: gauss,
                           rc: 0.18,
                           lmax: 2}
    cutoffs: {filter: 1.11,
              core: 0.96}
    valence states:
      #              energy  rcut
      - 2s(2.00)   -18.583   0.603
      - 2p(3.00)    -7.089   0.529
      -  s           8.629   0.603
      -  p          20.123   0.529
      -  d           0.000   0.577
  
    # Using partial waves for N as LCAO basis

  C:
    name: Carbon
    id: 4aa54d4b901d75f77cc0ea3eec22967b
    Z: 6.0
    valence: 4
    core: 2
    charge: 0.0
    file: /home/fr/fr_fr/fr_ez1021/source/gpaw-setups/gpaw-setups-0.9.20000/C.PBE.gz
    compensation charges: {type: gauss,
                           rc: 0.20,
                           lmax: 2}
    cutoffs: {filter: 1.14,
              core: 1.14}
    valence states:
      #              energy  rcut
      - 2s(2.00)   -13.751   0.635
      - 2p(2.00)    -5.284   0.635
      -  s          13.461   0.635
      -  p          21.927   0.635
      -  d           0.000   0.635
  
    # Using partial waves for C as LCAO basis

  O:
    name: Oxygen
    id: 32ecd46bf208036f09c70b0ec9a88b78
    Z: 8.0
    valence: 6
    core: 2
    charge: 0.0
    file: /home/fr/fr_fr/fr_ez1021/source/gpaw-setups/gpaw-setups-0.9.20000/O.PBE.gz
    compensation charges: {type: gauss,
                           rc: 0.21,
                           lmax: 2}
    cutoffs: {filter: 1.17,
              core: 0.83}
    valence states:
      #              energy  rcut
      - 2s(2.00)   -23.961   0.688
      - 2p(4.00)    -9.029   0.598
      -  s           3.251   0.688
      -  p          18.182   0.598
      -  d           0.000   0.619
  
    # Using partial waves for O as LCAO basis

  H:
    name: Hydrogen
    id: d65de229564ff8ea4db303e23b6d1ecf
    Z: 1.0
    valence: 1
    core: 0
    charge: 0.0
    file: /home/fr/fr_fr/fr_ez1021/source/gpaw-setups/gpaw-setups-0.9.20000/H.PBE.gz
    compensation charges: {type: gauss,
                           rc: 0.15,
                           lmax: 2}
    cutoffs: {filter: 0.85,
              core: 0.53}
    valence states:
      #              energy  rcut
      - 1s(1.00)    -6.494   0.476
      -  s          20.717   0.476
      -  p           0.000   0.476
  
    # Using partial waves for H as LCAO basis

Reference energy: -14895.682746  # eV

Spin-paired calculation

Convergence criteria:
 Maximum [total energy] change in last 3 cyles: 0.0005 eV / valence electron
 Maximum integral of absolute [dens]ity change: 0.0001 electrons / valence electron
 Maximum integral of absolute [eigenst]ate change: 4e-08 eV^2 / valence electron
 Maximum number of scf [iter]ations: 333
 (Square brackets indicate name in SCF output, whereas a 'c' in
 the SCF output indicates the quantity has converged.)

Symmetries present (total): 1

  ( 1  0  0)
  ( 0  1  0)
  ( 0  0  1)

1 k-point (Gamma)
1 k-point in the irreducible part of the Brillouin zone
       k-points in crystal coordinates                weights
   0:     0.00000000    0.00000000    0.00000000          1/1

Wave functions: Uniform real-space grid
[...]
  16 O      8.429162    8.326609    6.746932    ( 0.0000,  0.0000,  0.0000)
  17 H      8.097771    7.044565    7.358114    ( 0.0000,  0.0000,  0.0000)
  18 H      5.804982    9.972853    4.985345    ( 0.0000,  0.0000,  0.0000)

Unit cell:
           periodic     x           y           z      points  spacing
  1. axis:    no    12.800000    0.000000    0.000000    64     0.2000
  2. axis:    no     0.000000   14.400000    0.000000    72     0.2000
  3. axis:    no     0.000000    0.000000   12.800000    64     0.2000

  Lengths:  12.800000  14.400000  12.800000
  Angles:   90.000000  90.000000  90.000000

Effective grid spacing dv^(1/3) = 0.2000

     iter     time        total  log10-change:
                         energy   eigst   dens
iter:   1 21:54:31  -124.682471
iter:   2 21:54:32  -117.800206   +0.63  -0.75
iter:   3 21:54:33  -115.979779   +0.53  -0.96
iter:   4 21:54:33  -115.715721   -0.17  -1.20
iter:   5 21:54:34  -115.713179   -0.73  -1.57
iter:   6 21:54:35  -115.705314c  -1.25  -2.09
iter:   7 21:54:35  -115.705549c  -1.95  -2.52
iter:   8 21:54:36  -115.705223c  -2.41  -2.70
iter:   9 21:54:37  -115.705384c  -2.84  -3.03
iter:  10 21:54:37  -115.705426c  -3.19  -3.21
iter:  11 21:54:38  -115.705598c  -3.67  -3.67
iter:  12 21:54:38  -115.705539c  -3.98  -3.82
iter:  13 21:54:39  -115.705439c  -4.34  -4.12c
iter:  14 21:54:39  -115.705563c  -4.65  -4.25c
iter:  15 21:54:39  -115.705586c  -5.01  -4.66c
iter:  16 21:54:40  -115.705562c  -5.34  -4.71c
iter:  17 21:54:40  -115.705545c  -5.74  -4.89c
iter:  18 21:54:41  -115.705594c  -6.13  -5.34c
iter:  19 21:54:41  -115.705627c  -6.40  -5.43c
iter:  20 21:54:41  -115.705616c  -6.68  -5.62c
iter:  21 21:54:42  -115.705555c  -6.99  -5.98c
iter:  22 21:54:42  -115.705524c  -7.35  -6.18c
iter:  23 21:54:43  -115.705533c  -7.69c -6.56c

Converged after 23 iterations.

Dipole moment: (-2.404798, 1.059293, -1.564971) |e|*Ang

Energy contributions relative to reference atoms: (reference = -14895.682746)

Kinetic:       +118.507316
Potential:     -132.253866
External:        -0.014693
XC:            -106.011361
Entropy (-ST):   +0.000000
Local:           +3.857497
Interactions  
 surf:           +0.209575
--------------------------
Free energy:   -115.705533
Extrapolated:  -115.705533

Solvation cavity surface area: 182.48668
Solvation cavity volume: 193.84168
 Band  Eigenvalues  Occupancy
    0    -26.71826    2.00000
    1    -26.51656    2.00000
    2    -25.70108    2.00000
    3    -24.41077    2.00000
    4    -24.02296    2.00000
    5    -20.62681    2.00000
    6    -18.57963    2.00000
    7    -16.62204    2.00000
    8    -15.51552    2.00000
    9    -14.98141    2.00000
   10    -14.57623    2.00000
   11    -13.81062    2.00000
   12    -12.81435    2.00000
   13    -12.74763    2.00000
   14    -11.53380    2.00000
   15    -11.03536    2.00000
   16    -10.81239    2.00000
   17    -10.68499    2.00000
   18    -10.29470    2.00000
   19     -9.93120    2.00000
   20     -9.53381    2.00000
   21     -9.47460    2.00000
   22     -8.94363    2.00000
   23     -8.07210    2.00000
   24     -6.93628    2.00000
   25     -6.66032    2.00000
   26     -6.50833    2.00000
   27     -6.27217    2.00000
   28     -5.75182    2.00000
   29     -1.71858    0.00000
   30     -0.97630    0.00000
   31     -0.64752    0.00000
   32     -0.62591    0.00000
   33     -0.39970    0.00000
   34      0.01104    0.00000
   35      0.16923    0.00000
   36      0.61823    0.00000
   37      0.82913    0.00000
   38      1.27607    0.00000

Fermi level: -3.73520

Gap: 4.033 eV
Transition (v -> c):
  (s=0, k=0, n=28, [0.00, 0.00, 0.00]) -> (s=0, k=0, n=29, [0.00, 0.00, 0.00])
Input parameters:
  external: {direction: [0. 0. 1.],
             name: ConstantElectricField,
             strength: 0.013870109453247894}

Initialize ...

species:
  N:
    name: Nitrogen
    id: f7500608b86eaa90eef8b1d9a670dc53
    Z: 7.0
    valence: 5
    core: 2
    charge: 0.0
    file: /home/fr/fr_fr/fr_ez1021/source/gpaw-setups/gpaw-setups-0.9.20000/N.PBE.gz
    compensation charges: {type: gauss,
                           rc: 0.18,
                           lmax: 2}
    cutoffs: {filter: 1.11,
              core: 0.96}
    valence states:
      #              energy  rcut
      - 2s(2.00)   -18.583   0.603
      - 2p(3.00)    -7.089   0.529
      -  s           8.629   0.603
      -  p          20.123   0.529
      -  d           0.000   0.577
  
    # Using partial waves for N as LCAO basis

  C:
    name: Carbon
    id: 4aa54d4b901d75f77cc0ea3eec22967b
    Z: 6.0
    valence: 4
    core: 2
    charge: 0.0
    file: /home/fr/fr_fr/fr_ez1021/source/gpaw-setups/gpaw-setups-0.9.20000/C.PBE.gz
    compensation charges: {type: gauss,
                           rc: 0.20,
                           lmax: 2}
    cutoffs: {filter: 1.14,
              core: 1.14}
    valence states:
      #              energy  rcut
      - 2s(2.00)   -13.751   0.635
      - 2p(2.00)    -5.284   0.635
      -  s          13.461   0.635
      -  p          21.927   0.635
      -  d           0.000   0.635
  
    # Using partial waves for C as LCAO basis

  O:
    name: Oxygen
    id: 32ecd46bf208036f09c70b0ec9a88b78
    Z: 8.0
    valence: 6
    core: 2
    charge: 0.0
    file: /home/fr/fr_fr/fr_ez1021/source/gpaw-setups/gpaw-setups-0.9.20000/O.PBE.gz
    compensation charges: {type: gauss,
                           rc: 0.21,
                           lmax: 2}
    cutoffs: {filter: 1.17,
              core: 0.83}
    valence states:
      #              energy  rcut
      - 2s(2.00)   -23.961   0.688
      - 2p(4.00)    -9.029   0.598
      -  s           3.251   0.688
      -  p          18.182   0.598
      -  d           0.000   0.619
  
    # Using partial waves for O as LCAO basis

  H:
    name: Hydrogen
    id: d65de229564ff8ea4db303e23b6d1ecf
    Z: 1.0
    valence: 1
    core: 0
    charge: 0.0
    file: /home/fr/fr_fr/fr_ez1021/source/gpaw-setups/gpaw-setups-0.9.20000/H.PBE.gz
    compensation charges: {type: gauss,
                           rc: 0.15,
                           lmax: 2}
    cutoffs: {filter: 0.85,
              core: 0.53}
    valence states:
      #              energy  rcut
      - 1s(1.00)    -6.494   0.476
      -  s          20.717   0.476
      -  p           0.000   0.476
  
    # Using partial waves for H as LCAO basis

Reference energy: -14895.682746  # eV

Spin-paired calculation

Convergence criteria:
 Maximum [total energy] change in last 3 cyles: 0.0005 eV / valence electron
 Maximum integral of absolute [dens]ity change: 0.0001 electrons / valence electron
 Maximum integral of absolute [eigenst]ate change: 4e-08 eV^2 / valence electron
 Maximum number of scf [iter]ations: 333
 (Square brackets indicate name in SCF output, whereas a 'c' in
 the SCF output indicates the quantity has converged.)

Symmetries present (total): 1

  ( 1  0  0)
  ( 0  1  0)
  ( 0  0  1)

1 k-point (Gamma)
1 k-point in the irreducible part of the Brillouin zone
       k-points in crystal coordinates                weights
   0:     0.00000000    0.00000000    0.00000000          1/1

Wave functions: Uniform real-space grid
  Kinetic energy operator: 6*3+1=19 point O(h^6) finite-difference Laplacian
  ScaLapack parameters: grid=1x1, blocksize=None
  Wavefunction extrapolation:
    Improved wavefunction reuse through dual PAW basis 

Occupation numbers: # Zero width 

Eigensolver
   Davidson(niter=2) 

Densities:
  Coarse grid: 64*72*64 grid
  Fine grid: 128*144*128 grid
  Total Charge: 0.000000 

Density mixing:
  Method: separate
  Backend: pulay
  Linear mixing parameter: 0.25
  old densities: 3
  Damping of long wavelength oscillations: 1  # (no daming) 

Hamiltonian:
  XC and Coulomb potentials evaluated on a 128*144*128 grid
  Using the PBE Exchange-Correlation functional
  External potential:
    Constant electric field: (0.000, 0.000, 0.014) V/Ang
  Interpolation: tri-quintic (5. degree polynomial)
  Poisson solver: Jacobi weighted FD solver with dielectric and 5 multi-grid levels
    Coarsest grid: 8 x 9 x 8 points
    Stencil: Weighted Finite Difference Operator
      6*3+1=19 point O(h^6) finite-difference Laplacian
      Finite-difference x-derivative with O(h^6) error (6 points)
      Finite-difference y-derivative with O(h^6) error (6 points)
      Finite-difference z-derivative with O(h^6) error (6 points)
    Max iterations: 1000
    Tolerance: 2.000000e-10

  Solvation:
    Cavity:  EffectivePotentialCavity
      Surface Calculator: GradientSurface with 3 nn
      Volume Calculator: KB51Volume
        compressibility: 72.57860092224
        temperature:     298.15
      EffectivePotentialCavity
        Potential: Power12Potential
          u0: 0.18eV
          pbc_cutoff: 1e-06
          tiny: 1e-10
        temperature: 298.15K    Dielectric:
      Type: LinearDielectric
      Solvent dielectric constant: 1.77    Interaction: SurfaceInteraction
      subscript: surf
      Surface_tension: 0.0011484376791625194 eV/(Angstrom^2)
XC parameters: PBE with 2 nearest neighbor stencil

Memory estimate:
  Process memory now: 309.41 MiB
  Calculator: 48.72 MiB
    Density: 4.72 MiB
      Arrays: 3.43 MiB
      Localized functions: 0.55 MiB
      Mixer: 0.75 MiB
    Hamiltonian: 33.47 MiB
      Arrays: 2.24 MiB
      XC: 0.00 MiB
      Poisson: 2.57 MiB
      vbar: 0.04 MiB
      Solvation: 28.62 MiB
    Wavefunctions: 10.52 MiB
      Arrays psit_nG: 4.86 MiB
      Eigensolver: 5.60 MiB
      Projections: 0.00 MiB
      Projectors: 0.06 MiB

Total number of cores used: 16
Domain decomposition: 2 x 4 x 2

Number of atoms: 19
Number of atomic orbitals: 49
Number of bands in calculation: 39
Number of valence electrons: 58
Bands to converge: occupied

... initialized

Initializing position-dependent things.

Solvation position-dependent initialization:
  Atomic radii for Power12Potential:
    Type    Radius   No. of atoms
       H     1.090     9
       O     1.520     4
       N     1.550     1
       C     1.700     5

Density initialized from atomic densities
Creating initial wave functions:
  39 bands from LCAO basis set

          .------------------------------.  
         /|                              |  
        / |                              |  
       /  |                              |  
      /   |                              |  
     /    |                              |  
    /     |                              |  
   /      |                              |  
  /       |                              |  
 *        |                              |  
 |        |                              |  
 |        |         H   OH O             |  
 |        |      H  OC   CO              |  
 |        |        C H                   |  
 |        |      H HC H                  |  
 |        |       H                      |  
 |        .------------------------------.  
 |       /                              /   
 |      /                              /    
 |     /                              /     
 |    /                              /      
 |   /                              /       
 |  /                              /        
 | /                              /         
 |/                              /          
 *------------------------------*           

Positions:
   0 N      5.244284    9.126258    5.218114    ( 0.0000,  0.0000,  0.0000)
   1 C      6.121769    8.286423    6.103186    ( 0.0000,  0.0000,  0.0000)
   2 C      7.521264    8.948095    6.102167    ( 0.0000,  0.0000,  0.0000)
   3 O      7.665145   10.034293    5.492983    ( 0.0000,  0.0000,  0.0000)
   4 H      4.370838    9.403765    5.679584    ( 0.0000,  0.0000,  0.0000)
   5 H      5.001405    8.646386    4.343524    ( 0.0000,  0.0000,  0.0000)
   6 H      5.718045    8.387552    7.119462    ( 0.0000,  0.0000,  0.0000)
   7 C      6.131891    6.799075    5.689528    ( 0.0000,  0.0000,  0.0000)
   8 C      5.877823    5.781425    6.808498    ( 0.0000,  0.0000,  0.0000)
   9 C      6.979576    5.393064    7.781098    ( 0.0000,  0.0000,  0.0000)
  10 O      8.057083    6.148937    7.919957    ( 0.0000,  0.0000,  0.0000)
  11 O      6.860137    4.365707    8.456476    ( 0.0000,  0.0000,  0.0000)
  12 H      7.064099    6.559421    5.157584    ( 0.0000,  0.0000,  0.0000)
  13 H      5.325614    6.644445    4.958761    ( 0.0000,  0.0000,  0.0000)
  14 H      5.561549    4.833832    6.350531    ( 0.0000,  0.0000,  0.0000)
  15 H      5.025076    6.100971    7.431700    ( 0.0000,  0.0000,  0.0000)
  16 O      8.429162    8.326609    6.746932    ( 0.0000,  0.0000,  0.0000)
  17 H      8.097771    7.044565    7.358114    ( 0.0000,  0.0000,  0.0000)
  18 H      5.804982    9.972853    4.985345    ( 0.0000,  0.0000,  0.0000)

Unit cell:
           periodic     x           y           z      points  spacing
  1. axis:    no    12.800000    0.000000    0.000000    64     0.2000
  2. axis:    no     0.000000   14.400000    0.000000    72     0.2000
  3. axis:    no     0.000000    0.000000   12.800000    64     0.2000

  Lengths:  12.800000  14.400000  12.800000
  Angles:   90.000000  90.000000  90.000000

Effective grid spacing dv^(1/3) = 0.2000

     iter     time        total  log10-change:
                         energy   eigst   dens
iter:   1 21:54:45  -124.637321
iter:   2 21:54:45  -117.761654   +0.63  -0.75
iter:   3 21:54:46  -115.943437   +0.53  -0.96
iter:   4 21:54:47  -115.679628   -0.17  -1.20
iter:   5 21:54:48  -115.677057   -0.74  -1.57
iter:   6 21:54:48  -115.669175c  -1.25  -2.09
iter:   7 21:54:49  -115.669408c  -1.96  -2.52
iter:   8 21:54:50  -115.669082c  -2.41  -2.70
iter:   9 21:54:50  -115.669242c  -2.84  -3.03
iter:  10 21:54:51  -115.669283c  -3.19  -3.21
iter:  11 21:54:51  -115.669454c  -3.67  -3.67
iter:  12 21:54:52  -115.669395c  -3.99  -3.82
iter:  13 21:54:52  -115.669295c  -4.34  -4.12c
iter:  14 21:54:53  -115.669419c  -4.66  -4.25c
iter:  15 21:54:53  -115.669443c  -5.02  -4.68c
iter:  16 21:54:53  -115.669418c  -5.34  -4.72c
iter:  17 21:54:54  -115.669403c  -5.75  -4.88c
iter:  18 21:54:54  -115.669449c  -6.14  -5.35c
iter:  19 21:54:55  -115.669475c  -6.41  -5.43c
iter:  20 21:54:55  -115.669478c  -6.67  -5.60c
iter:  21 21:54:55  -115.669418c  -7.02  -5.96c
iter:  22 21:54:56  -115.669388c  -7.36  -6.14c
iter:  23 21:54:56  -115.669385c  -7.63c -6.41c

Converged after 23 iterations.

Dipole moment: (-2.403855, 1.039037, -1.548470) |e|*Ang

Energy contributions relative to reference atoms: (reference = -14895.682746)

Kinetic:       +118.525498
Potential:     -132.273244
External:        +0.021477
XC:            -106.010039
Entropy (-ST):   +0.000000
Local:           +3.857347
Interactions  
 surf:           +0.209575
--------------------------
Free energy:   -115.669385
Extrapolated:  -115.669385

Solvation cavity surface area: 182.48668
Solvation cavity volume: 193.84168
 Band  Eigenvalues  Occupancy
    0    -26.71533    2.00000
    1    -26.51176    2.00000
    2    -25.72824    2.00000
    3    -24.39005    2.00000
    4    -24.02913    2.00000
    5    -20.62950    2.00000
    6    -18.58126    2.00000
    7    -16.62565    2.00000
    8    -15.54460    2.00000
    9    -14.99819    2.00000
   10    -14.56502    2.00000
   11    -13.82867    2.00000
   12    -12.81642    2.00000
   13    -12.74643    2.00000
   14    -11.53034    2.00000
   15    -11.03984    2.00000
   16    -10.80612    2.00000
   17    -10.68072    2.00000
   18    -10.30279    2.00000
   19     -9.91617    2.00000
   20     -9.52987    2.00000
   21     -9.47558    2.00000
   22     -8.92581    2.00000
   23     -8.05185    2.00000
   24     -6.92098    2.00000
   25     -6.66209    2.00000
   26     -6.52852    2.00000
   27     -6.28067    2.00000
   28     -5.71629    2.00000
   29     -1.75091    0.00000
   30     -0.99566    0.00000
   31     -0.63920    0.00000
   32     -0.62153    0.00000
   33     -0.41004    0.00000
   34     -0.01225    0.00000
   35      0.14851    0.00000
   36      0.56042    0.00000
   37      0.81188    0.00000
   38      1.28744    0.00000

Fermi level: -3.73360

Gap: 3.965 eV
Transition (v -> c):
  (s=0, k=0, n=28, [0.00, 0.00, 0.00]) -> (s=0, k=0, n=29, [0.00, 0.00, 0.00])
Input parameters:
  external: None

Timing:                              incl.     excl.
-----------------------------------------------------------
Hamiltonian:                        40.677    10.823   2.5% ||
 Atomic:                             1.101     0.019   0.0% |
  XC Correction:                     1.082     1.082   0.3% |
 Hartree integrate/restrict:         0.085     0.085   0.0% |
 Initialize Hamiltonian:             1.019     1.019   0.2% |
 Poisson:                           26.173    26.173   6.1% |-|
 XC 3D grid:                         1.452     1.452   0.3% |
 vbar:                               0.025     0.025   0.0% |
LCAO initialization:                 8.942     6.856   1.6% ||
 LCAO eigensolver:                   0.683     0.003   0.0% |
  Calculate projections:             0.001     0.001   0.0% |
  DenseAtomicCorrection:             0.001     0.001   0.0% |
  Distribute overlap matrix:         0.624     0.624   0.1% |
  Orbital Layouts:                   0.025     0.025   0.0% |
  Potential matrix:                  0.029     0.029   0.0% |
 LCAO to grid:                       0.179     0.179   0.0% |
 Set positions (LCAO WFS):           1.224     0.942   0.2% |
  Basic WFS set positions:           0.022     0.022   0.0% |
  Basis functions set positions:     0.003     0.003   0.0% |
  P tci:                             0.010     0.010   0.0% |
  ST tci:                            0.085     0.085   0.0% |
  mktci:                             0.161     0.161   0.0% |
SCF-cycle:                         373.748     0.606   0.1% |
 Davidson:                         151.582    53.715  12.5% |----|
  Apply hamiltonian:                12.632    12.632   2.9% ||
  Subspace diag:                    21.425     0.130   0.0% |
   calc_h_matrix:                   14.205     2.266   0.5% |
    Apply hamiltonian:              11.939    11.939   2.8% ||
   diagonalize:                      1.738     1.738   0.4% |
   rotate_psi:                       5.352     5.352   1.2% |
  calc. matrices:                   51.556    21.710   5.0% |-|
   Apply hamiltonian:               29.846    29.846   6.9% |--|
  diagonalize:                       1.616     1.616   0.4% |
  rotate_psi:                       10.638    10.638   2.5% ||
 Density:                            5.329     0.016   0.0% |
  Atomic density matrices:           1.092     1.092   0.3% |
  Mix:                               3.271     3.271   0.8% |
  Multipole moments:                 0.148     0.148   0.0% |
  Pseudo density:                    0.802     0.791   0.2% |
   Symmetrize density:               0.012     0.012   0.0% |
 Hamiltonian:                      214.358    14.396   3.3% ||
  Atomic:                           23.831     0.399   0.1% |
   XC Correction:                   23.432    23.432   5.4% |-|
  Hartree integrate/restrict:        1.591     1.591   0.4% |
  Poisson:                         143.974   143.974  33.4% |------------|
  XC 3D grid:                       30.231    30.231   7.0% |--|
  vbar:                              0.335     0.335   0.1% |
 Orthonormalize:                     1.872     0.005   0.0% |
  calc_s_matrix:                     0.082     0.082   0.0% |
  inverse-cholesky:                  1.636     1.636   0.4% |
  projections:                       0.001     0.001   0.0% |
  rotate_psi_s:                      0.148     0.148   0.0% |
Set symmetry:                        0.029     0.029   0.0% |
Other:                               7.886     7.886   1.8% ||
-----------------------------------------------------------
Total:                                       431.282 100.0%

Memory usage: 309.41 MiB
Date: Fri Oct  6 21:54:56 2023
