
  ___ ___ ___ _ _ _  
 |   |   |_  | | | | 
 | | | | | . | | | | 
 |__ |  _|___|_____|  23.9.2b1
 |___|_|             

User:   fr_ez1021@n0606
Date:   Fri Oct  6 21:42:01 2023
Arch:   x86_64
Pid:    3026746
CWD:    /lustre/home/fr/fr_fr/fr_ez1021/sims/amino_acids_publish/scripts
Python: 3.8.3
gpaw:   /home/fr/fr_fr/fr_ez1021/source/origin/gpaw/gpaw (68657f1768)
_gpaw:  /home/fr/fr_fr/fr_ez1021/source/origin/gpaw/build/lib.linux-x86_64-3.8/
        _gpaw.cpython-38-x86_64-linux-gnu.so (d6c5f22bb1)
ase:    /home/fr/fr_fr/fr_ez1021/source/origin/ase/ase (version 3.23.0b1-4bd916e410)
numpy:  /opt/bwhpc/common/numlib/python_numpy/1.19.0_python-3.8.3/lib/python3.8/site-packages/numpy-1.19.0-py3.8-linux-x86_64.egg/numpy (version 1.19.0)
scipy:  /opt/bwhpc/common/numlib/python_scipy/1.5.0_numpy-1.19.0_python-3.8.3/lib/python3.8/site-packages/scipy-1.5.0-py3.8-linux-x86_64.egg/scipy (version 1.5.0)
libxc:  5.1.7
units:  Angstrom and eV
cores: 16
OpenMP: False
OMP_NUM_THREADS: 1

Input parameters:
  charge: 1
  mode: fd
  xc: PBE

Implicit solvation parameters:
Cavity:  EffectivePotentialCavity
  Surface Calculator: GradientSurface with 3 nn
  Volume Calculator: KB51Volume
    compressibility: 72.57860092224
    temperature:     298.15
  EffectivePotentialCavity
    Potential: Power12Potential
      u0: 0.18eV
      pbc_cutoff: 1e-06
      tiny: 1e-10
    temperature: 298.15K
Dielectric:
  Type: LinearDielectric
  Solvent dielectric constant: 1.77
Interaction: SurfaceInteraction
  subscript: surf
  Surface_tension: 0.0011484376791625194 eV/(Angstrom^2)

System changes: positions, numbers, cell, pbc, initial_charges, initial_magmoms 

Initialize ...

species:
  N:
    name: Nitrogen
    id: f7500608b86eaa90eef8b1d9a670dc53
    Z: 7.0
    valence: 5
    core: 2
    charge: 0.0
    file: /home/fr/fr_fr/fr_ez1021/source/gpaw-setups/gpaw-setups-0.9.20000/N.PBE.gz
    compensation charges: {type: gauss,
                           rc: 0.18,
                           lmax: 2}
    cutoffs: {filter: 1.11,
              core: 0.96}
    valence states:
      #              energy  rcut
      - 2s(2.00)   -18.583   0.603
      - 2p(3.00)    -7.089   0.529
      -  s           8.629   0.603
      -  p          20.123   0.529
      -  d           0.000   0.577
  
    # Using partial waves for N as LCAO basis

  C:
    name: Carbon
    id: 4aa54d4b901d75f77cc0ea3eec22967b
    Z: 6.0
    valence: 4
    core: 2
    charge: 0.0
    file: /home/fr/fr_fr/fr_ez1021/source/gpaw-setups/gpaw-setups-0.9.20000/C.PBE.gz
    compensation charges: {type: gauss,
                           rc: 0.20,
                           lmax: 2}
    cutoffs: {filter: 1.14,
              core: 1.14}
    valence states:
      #              energy  rcut
      - 2s(2.00)   -13.751   0.635
      - 2p(2.00)    -5.284   0.635
      -  s          13.461   0.635
      -  p          21.927   0.635
      -  d           0.000   0.635
  
    # Using partial waves for C as LCAO basis

  O:
    name: Oxygen
    id: 32ecd46bf208036f09c70b0ec9a88b78
    Z: 8.0
    valence: 6
    core: 2
    charge: 0.0
    file: /home/fr/fr_fr/fr_ez1021/source/gpaw-setups/gpaw-setups-0.9.20000/O.PBE.gz
    compensation charges: {type: gauss,
                           rc: 0.21,
                           lmax: 2}
    cutoffs: {filter: 1.17,
              core: 0.83}
    valence states:
      #              energy  rcut
      - 2s(2.00)   -23.961   0.688
      - 2p(4.00)    -9.029   0.598
      -  s           3.251   0.688
      -  p          18.182   0.598
      -  d           0.000   0.619
  
    # Using partial waves for O as LCAO basis

  H:
    name: Hydrogen
    id: d65de229564ff8ea4db303e23b6d1ecf
    Z: 1.0
    valence: 1
    core: 0
    charge: 0.0
    file: /home/fr/fr_fr/fr_ez1021/source/gpaw-setups/gpaw-setups-0.9.20000/H.PBE.gz
    compensation charges: {type: gauss,
                           rc: 0.15,
                           lmax: 2}
    cutoffs: {filter: 0.85,
              core: 0.53}
    valence states:
      #              energy  rcut
      - 1s(1.00)    -6.494   0.476
      -  s          20.717   0.476
      -  p           0.000   0.476
  
    # Using partial waves for H as LCAO basis

Reference energy: -14908.172909  # eV

Spin-paired calculation

Convergence criteria:
 Maximum [total energy] change in last 3 cyles: 0.0005 eV / valence electron
 Maximum integral of absolute [dens]ity change: 0.0001 electrons / valence electron
 Maximum integral of absolute [eigenst]ate change: 4e-08 eV^2 / valence electron
 Maximum number of scf [iter]ations: 333
 (Square brackets indicate name in SCF output, whereas a 'c' in
 the SCF output indicates the quantity has converged.)

Symmetries present (total): 1

  ( 1  0  0)
  ( 0  1  0)
  ( 0  0  1)

1 k-point (Gamma)
1 k-point in the irreducible part of the Brillouin zone
       k-points in crystal coordinates                weights
   0:     0.00000000    0.00000000    0.00000000          1/1

Wave functions: Uniform real-space grid
  Kinetic energy operator: 6*3+1=19 point O(h^6) finite-difference Laplacian
  ScaLapack parameters: grid=1x1, blocksize=None
  Wavefunction extrapolation:
    Improved wavefunction reuse through dual PAW basis 

Occupation numbers: # Zero width 

Eigensolver
   Davidson(niter=2) 

Densities:
  Coarse grid: 64*68*72 grid
  Fine grid: 128*136*144 grid
  Total Charge: 1.000000 

Density mixing:
  Method: separate
  Backend: pulay
  Linear mixing parameter: 0.25
  old densities: 3
  Damping of long wavelength oscillations: 1  # (no daming) 

Hamiltonian:
  XC and Coulomb potentials evaluated on a 128*136*144 grid
  Using the PBE Exchange-Correlation functional
  Interpolation: tri-quintic (5. degree polynomial)
  Poisson solver: Jacobi weighted FD solver with dielectric and 4 multi-grid levels
    Coarsest grid: 16 x 17 x 18 points
    Stencil: Weighted Finite Difference Operator
      6*3+1=19 point O(h^6) finite-difference Laplacian
      Finite-difference x-derivative with O(h^6) error (6 points)
      Finite-difference y-derivative with O(h^6) error (6 points)
      Finite-difference z-derivative with O(h^6) error (6 points)
    Max iterations: 1000
    Tolerance: 2.000000e-10

  Solvation:
    Cavity:  EffectivePotentialCavity
      Surface Calculator: GradientSurface with 3 nn
      Volume Calculator: KB51Volume
        compressibility: 72.57860092224
        temperature:     298.15
      EffectivePotentialCavity
        Potential: Power12Potential
          u0: 0.18eV
          pbc_cutoff: 1e-06
          tiny: 1e-10
        temperature: 298.15K    Dielectric:
      Type: LinearDielectric
      Solvent dielectric constant: 1.77    Interaction: SurfaceInteraction
      subscript: surf
      Surface_tension: 0.0011484376791625194 eV/(Angstrom^2)
XC parameters: PBE with 2 nearest neighbor stencil

Memory estimate:
  Process memory now: 149.21 MiB
  Calculator: 51.79 MiB
    Density: 5.00 MiB
      Arrays: 3.65 MiB
      Localized functions: 0.56 MiB
      Mixer: 0.80 MiB
    Hamiltonian: 35.59 MiB
      Arrays: 2.39 MiB
      XC: 0.00 MiB
      Poisson: 2.73 MiB
      vbar: 0.04 MiB
      Solvation: 30.43 MiB
    Wavefunctions: 11.19 MiB
      Arrays psit_nG: 5.17 MiB
      Eigensolver: 5.96 MiB
      Projections: 0.00 MiB
      Projectors: 0.06 MiB

Total number of cores used: 16
Domain decomposition: 2 x 2 x 4

Number of atoms: 20
Number of atomic orbitals: 50
Number of bands in calculation: 39
Number of valence electrons: 58
Bands to converge: occupied

... initialized

Initializing position-dependent things.

Solvation position-dependent initialization:
  Atomic radii for Power12Potential:
    Type    Radius   No. of atoms
       H     1.090     10
       O     1.520     4
       N     1.550     1
       C     1.700     5

Density initialized from atomic densities
Creating initial wave functions:
  39 bands from LCAO basis set

         .------------------------------.  
        /|                              |  
       / |                              |  
      /  |                              |  
     /   |                              |  
    /    |                              |  
   /     |                              |  
  /      |                              |  
 *       |                              |  
 |       |          H                   |  
 |       |             O  H             |  
 |       |       H HC   C O             |  
 |       |     H C  N  H                |  
 |       |        CHH                   |  
 |       |      H                       |  
 |       |       CO                     |  
 |       |                              |  
 |       |       O                      |  
 |       .-------H----------------------.  
 |      /                              /   
 |     /                              /    
 |    /                              /     
 |   /                              /      
 |  /                              /       
 | /                              /        
 |/                              /         
 *------------------------------*          

Positions:
   0 N      5.985838    8.496373    7.501117    ( 0.0000,  0.0000,  0.0000)
   1 C      6.066610    7.579116    8.675106    ( 0.0000,  0.0000,  0.0000)
   2 C      7.537351    7.257345    8.917785    ( 0.0000,  0.0000,  0.0000)
   3 O      8.455106    7.789255    8.312723    ( 0.0000,  0.0000,  0.0000)
   4 H      5.310221    9.252525    7.657111    ( 0.0000,  0.0000,  0.0000)
   5 H      5.687373    7.962170    6.647894    ( 0.0000,  0.0000,  0.0000)
   6 H      5.726154    8.146186    9.553318    ( 0.0000,  0.0000,  0.0000)
   7 C      5.150077    6.360539    8.514542    ( 0.0000,  0.0000,  0.0000)
   8 C      5.594126    5.268202    7.537964    ( 0.0000,  0.0000,  0.0000)
   9 C      5.435105    5.563157    6.068980    ( 0.0000,  0.0000,  0.0000)
  10 O      5.216217    6.668391    5.571457    ( 0.0000,  0.0000,  0.0000)
  11 O      5.573043    4.461447    5.318620    ( 0.0000,  0.0000,  0.0000)
  12 H      4.151550    6.730814    8.241193    ( 0.0000,  0.0000,  0.0000)
  13 H      5.055792    5.908513    9.509574    ( 0.0000,  0.0000,  0.0000)
  14 H      5.031390    4.347475    7.746313    ( 0.0000,  0.0000,  0.0000)
  15 H      6.649446    4.988739    7.690426    ( 0.0000,  0.0000,  0.0000)
  16 O      7.688504    6.354274    9.889213    ( 0.0000,  0.0000,  0.0000)
  17 H      6.907500    8.922776    7.322518    ( 0.0000,  0.0000,  0.0000)
  18 H      5.497056    4.714388    4.372389    ( 0.0000,  0.0000,  0.0000)
  19 H      8.648450    6.199729   10.027611    ( 0.0000,  0.0000,  0.0000)

Unit cell:
           periodic     x           y           z      points  spacing
  1. axis:    no    12.800000    0.000000    0.000000    64     0.2000
  2. axis:    no     0.000000   13.600000    0.000000    68     0.2000
  3. axis:    no     0.000000    0.000000   14.400000    72     0.2000

  Lengths:  12.800000  13.600000  14.400000
  Angles:   90.000000  90.000000  90.000000

Effective grid spacing dv^(1/3) = 0.2000

     iter     time        total  log10-change:
                         energy   eigst   dens
iter:   1 21:42:05  -126.369500
iter:   2 21:42:06  -117.492264   +0.67  -0.70
iter:   3 21:42:08  -114.962457   +0.67  -0.92
iter:   4 21:42:10  -114.682469   -0.18  -1.20
iter:   5 21:42:11  -114.671369   -0.63  -1.52
iter:   6 21:42:12  -114.667593c  -1.09  -2.14
iter:   7 21:42:13  -114.667792c  -1.78  -2.42
iter:   8 21:42:14  -114.667553c  -2.30  -2.57
iter:   9 21:42:14  -114.668112c  -2.57  -2.85
iter:  10 21:42:15  -114.667713c  -3.11  -3.07
iter:  11 21:42:16  -114.667481c  -3.59  -3.49
iter:  12 21:42:16  -114.667380c  -3.92  -3.62
iter:  13 21:42:17  -114.667485c  -4.35  -4.08c
iter:  14 21:42:17  -114.667585c  -4.70  -4.19c
iter:  15 21:42:18  -114.667550c  -5.07  -4.45c
iter:  16 21:42:18  -114.667443c  -5.43  -4.73c
iter:  17 21:42:19  -114.667424c  -5.77  -4.93c
iter:  18 21:42:20  -114.667433c  -6.16  -5.28c
iter:  19 21:42:20  -114.667487c  -6.49  -5.56c
iter:  20 21:42:20  -114.667529c  -6.79  -5.77c
iter:  21 21:42:21  -114.667531c  -7.12  -5.86c
iter:  22 21:42:21  -114.667527c  -7.50c -5.97c

Converged after 22 iterations.

Dipole moment: (5.855829, 7.207786, 7.971589) |e|*Ang

Energy contributions relative to reference atoms: (reference = -14908.172909)

Kinetic:       +118.629469
Potential:     -134.827726
External:        +0.000000
XC:            -102.530006
Entropy (-ST):   +0.000000
Local:           +3.848261
Interactions  
 surf:           +0.212475
--------------------------
Free energy:   -114.667527
Extrapolated:  -114.667527

Solvation cavity surface area: 185.01196
Solvation cavity volume: 196.43250
 Band  Eigenvalues  Occupancy
    0    -30.74187    2.00000
    1    -30.38941    2.00000
    2    -28.50340    2.00000
    3    -28.11845    2.00000
    4    -27.63992    2.00000
    5    -23.13248    2.00000
    6    -21.50388    2.00000
    7    -19.56333    2.00000
    8    -18.40045    2.00000
    9    -17.55768    2.00000
   10    -17.20417    2.00000
   11    -16.90026    2.00000
   12    -15.43882    2.00000
   13    -14.96975    2.00000
   14    -14.92920    2.00000
   15    -14.70433    2.00000
   16    -14.33897    2.00000
   17    -14.13851    2.00000
   18    -13.64453    2.00000
   19    -13.02205    2.00000
   20    -12.57258    2.00000
   21    -12.40186    2.00000
   22    -11.83944    2.00000
   23    -11.61296    2.00000
   24    -11.47103    2.00000
   25    -10.71430    2.00000
   26    -10.47468    2.00000
   27     -9.63184    2.00000
   28     -9.46383    2.00000
   29     -4.26120    0.00000
   30     -3.90802    0.00000
   31     -3.06787    0.00000
   32     -2.45862    0.00000
   33     -2.21965    0.00000
   34     -1.96978    0.00000
   35     -1.58042    0.00000
   36     -1.51939    0.00000
   37     -1.02704    0.00000
   38     -0.91917    0.00000

Fermi level: -6.86251

Gap: 5.203 eV
Transition (v -> c):
  (s=0, k=0, n=28, [0.00, 0.00, 0.00]) -> (s=0, k=0, n=29, [0.00, 0.00, 0.00])
Input parameters:
  external: {direction: [1. 0. 0.],
             name: ConstantElectricField,
             strength: 0.01}

Initialize ...

species:
  N:
    name: Nitrogen
    id: f7500608b86eaa90eef8b1d9a670dc53
    Z: 7.0
    valence: 5
    core: 2
    charge: 0.0
    file: /home/fr/fr_fr/fr_ez1021/source/gpaw-setups/gpaw-setups-0.9.20000/N.PBE.gz
    compensation charges: {type: gauss,
                           rc: 0.18,
                           lmax: 2}
    cutoffs: {filter: 1.11,
              core: 0.96}
    valence states:
      #              energy  rcut
      - 2s(2.00)   -18.583   0.603
      - 2p(3.00)    -7.089   0.529
      -  s           8.629   0.603
      -  p          20.123   0.529
      -  d           0.000   0.577
  
    # Using partial waves for N as LCAO basis

  C:
    name: Carbon
    id: 4aa54d4b901d75f77cc0ea3eec22967b
    Z: 6.0
    valence: 4
    core: 2
    charge: 0.0
    file: /home/fr/fr_fr/fr_ez1021/source/gpaw-setups/gpaw-setups-0.9.20000/C.PBE.gz
    compensation charges: {type: gauss,
                           rc: 0.20,
                           lmax: 2}
    cutoffs: {filter: 1.14,
              core: 1.14}
    valence states:
      #              energy  rcut
      - 2s(2.00)   -13.751   0.635
      - 2p(2.00)    -5.284   0.635
      -  s          13.461   0.635
      -  p          21.927   0.635
      -  d           0.000   0.635
  
    # Using partial waves for C as LCAO basis

  O:
    name: Oxygen
    id: 32ecd46bf208036f09c70b0ec9a88b78
    Z: 8.0
    valence: 6
    core: 2
    charge: 0.0
    file: /home/fr/fr_fr/fr_ez1021/source/gpaw-setups/gpaw-setups-0.9.20000/O.PBE.gz
    compensation charges: {type: gauss,
                           rc: 0.21,
                           lmax: 2}
    cutoffs: {filter: 1.17,
              core: 0.83}
    valence states:
      #              energy  rcut
      - 2s(2.00)   -23.961   0.688
      - 2p(4.00)    -9.029   0.598
      -  s           3.251   0.688
      -  p          18.182   0.598
      -  d           0.000   0.619
  
    # Using partial waves for O as LCAO basis

  H:
    name: Hydrogen
    id: d65de229564ff8ea4db303e23b6d1ecf
    Z: 1.0
    valence: 1
    core: 0
    charge: 0.0
    file: /home/fr/fr_fr/fr_ez1021/source/gpaw-setups/gpaw-setups-0.9.20000/H.PBE.gz
    compensation charges: {type: gauss,
                           rc: 0.15,
                           lmax: 2}
    cutoffs: {filter: 0.85,
              core: 0.53}
    valence states:
      #              energy  rcut
      - 1s(1.00)    -6.494   0.476
      -  s          20.717   0.476
      -  p           0.000   0.476
  
    # Using partial waves for H as LCAO basis

Reference energy: -14908.172909  # eV

Spin-paired calculation

Convergence criteria:
 Maximum [total energy] change in last 3 cyles: 0.0005 eV / valence electron
 Maximum integral of absolute [dens]ity change: 0.0001 electrons / valence electron
 Maximum integral of absolute [eigenst]ate change: 4e-08 eV^2 / valence electron
 Maximum number of scf [iter]ations: 333
 (Square brackets indicate name in SCF output, whereas a 'c' in
 the SCF output indicates the quantity has converged.)

Symmetries present (total): 1

  ( 1  0  0)
  ( 0  1  0)
  ( 0  0  1)

1 k-point (Gamma)
1 k-point in the irreducible part of the Brillouin zone
       k-points in crystal coordinates                weights
   0:     0.00000000    0.00000000    0.00000000          1/1

Wave functions: Uniform real-space grid
  Kinetic energy operator: 6*3+1=19 point O(h^6) finite-difference Laplacian
  ScaLapack parameters: grid=1x1, blocksize=None
  Wavefunction extrapolation:
    Improved wavefunction reuse through dual PAW basis 

Occupation numbers: # Zero width 

Eigensolver
   Davidson(niter=2) 

Densities:
  Coarse grid: 64*68*72 grid
  Fine grid: 128*136*144 grid
  Total Charge: 1.000000 

Density mixing:
  Method: separate
  Backend: pulay
  Linear mixing parameter: 0.25
  old densities: 3
  Damping of long wavelength oscillations: 1  # (no daming) 

Hamiltonian:
  XC and Coulomb potentials evaluated on a 128*136*144 grid
  Using the PBE Exchange-Correlation functional
  External potential:
    Constant electric field: (0.010, 0.000, 0.000) V/Ang
  Interpolation: tri-quintic (5. degree polynomial)
  Poisson solver: Jacobi weighted FD solver with dielectric and 4 multi-grid levels
    Coarsest grid: 16 x 17 x 18 points
    Stencil: Weighted Finite Difference Operator
      6*3+1=19 point O(h^6) finite-difference Laplacian
      Finite-difference x-derivative with O(h^6) error (6 points)
      Finite-difference y-derivative with O(h^6) error (6 points)
      Finite-difference z-derivative with O(h^6) error (6 points)
    Max iterations: 1000
    Tolerance: 2.000000e-10

  Solvation:
    Cavity:  EffectivePotentialCavity
      Surface Calculator: GradientSurface with 3 nn
      Volume Calculator: KB51Volume
        compressibility: 72.57860092224
        temperature:     298.15
      EffectivePotentialCavity
        Potential: Power12Potential
          u0: 0.18eV
          pbc_cutoff: 1e-06
          tiny: 1e-10
        temperature: 298.15K    Dielectric:
      Type: LinearDielectric
      Solvent dielectric constant: 1.77    Interaction: SurfaceInteraction
      subscript: surf
      Surface_tension: 0.0011484376791625194 eV/(Angstrom^2)
XC parameters: PBE with 2 nearest neighbor stencil

Memory estimate:
  Process memory now: 256.74 MiB
  Calculator: 51.79 MiB
    Density: 5.00 MiB
      Arrays: 3.65 MiB
      Localized functions: 0.56 MiB
      Mixer: 0.80 MiB
    Hamiltonian: 35.59 MiB
      Arrays: 2.39 MiB
      XC: 0.00 MiB
      Poisson: 2.73 MiB
      vbar: 0.04 MiB
      Solvation: 30.43 MiB
    Wavefunctions: 11.19 MiB
      Arrays psit_nG: 5.17 MiB
      Eigensolver: 5.96 MiB
      Projections: 0.00 MiB
      Projectors: 0.06 MiB

Total number of cores used: 16
Domain decomposition: 2 x 2 x 4

Number of atoms: 20
Number of atomic orbitals: 50
Number of bands in calculation: 39
Number of valence electrons: 58
Bands to converge: occupied

... initialized

Initializing position-dependent things.

Solvation position-dependent initialization:
  Atomic radii for Power12Potential:
    Type    Radius   No. of atoms
       H     1.090     10
       O     1.520     4
       N     1.550     1
       C     1.700     5

Density initialized from atomic densities
Creating initial wave functions:
  39 bands from LCAO basis set

         .------------------------------.  
        /|                              |  
       / |                              |  
      /  |                              |  
     /   |                              |  
    /    |                              |  
   /     |                              |  
  /      |                              |  
 *       |                              |  
 |       |          H                   |  
 |       |             O  H             |  
 |       |       H HC   C O             |  
 |       |     H C  N  H                |  
 |       |        CHH                   |  
 |       |      H                       |  
 |       |       CO                     |  
 |       |                              |  
 |       |       O                      |  
 |       .-------H----------------------.  
 |      /                              /   
 |     /                              /    
 |    /                              /     
 |   /                              /      
 |  /                              /       
 | /                              /        
 |/                              /         
 *------------------------------*          

Positions:
   0 N      5.985838    8.496373    7.501117    ( 0.0000,  0.0000,  0.0000)
   1 C      6.066610    7.579116    8.675106    ( 0.0000,  0.0000,  0.0000)
   2 C      7.537351    7.257345    8.917785    ( 0.0000,  0.0000,  0.0000)
   3 O      8.455106    7.789255    8.312723    ( 0.0000,  0.0000,  0.0000)
   4 H      5.310221    9.252525    7.657111    ( 0.0000,  0.0000,  0.0000)
   5 H      5.687373    7.962170    6.647894    ( 0.0000,  0.0000,  0.0000)
   6 H      5.726154    8.146186    9.553318    ( 0.0000,  0.0000,  0.0000)
   7 C      5.150077    6.360539    8.514542    ( 0.0000,  0.0000,  0.0000)
   8 C      5.594126    5.268202    7.537964    ( 0.0000,  0.0000,  0.0000)
   9 C      5.435105    5.563157    6.068980    ( 0.0000,  0.0000,  0.0000)
  10 O      5.216217    6.668391    5.571457    ( 0.0000,  0.0000,  0.0000)
  11 O      5.573043    4.461447    5.318620    ( 0.0000,  0.0000,  0.0000)
  12 H      4.151550    6.730814    8.241193    ( 0.0000,  0.0000,  0.0000)
  13 H      5.055792    5.908513    9.509574    ( 0.0000,  0.0000,  0.0000)
  14 H      5.031390    4.347475    7.746313    ( 0.0000,  0.0000,  0.0000)
  15 H      6.649446    4.988739    7.690426    ( 0.0000,  0.0000,  0.0000)
  16 O      7.688504    6.354274    9.889213    ( 0.0000,  0.0000,  0.0000)
  17 H      6.907500    8.922776    7.322518    ( 0.0000,  0.0000,  0.0000)
  18 H      5.497056    4.714388    4.372389    ( 0.0000,  0.0000,  0.0000)
  19 H      8.648450    6.199729   10.027611    ( 0.0000,  0.0000,  0.0000)

Unit cell:
           periodic     x           y           z      points  spacing
  1. axis:    no    12.800000    0.000000    0.000000    64     0.2000
  2. axis:    no     0.000000   13.600000    0.000000    68     0.2000
  3. axis:    no     0.000000    0.000000   14.400000    72     0.2000

  Lengths:  12.800000  13.600000  14.400000
  Angles:   90.000000  90.000000  90.000000

Effective grid spacing dv^(1/3) = 0.2000

     iter     time        total  log10-change:
                         energy   eigst   dens
iter:   1 21:42:25  -126.363944
iter:   2 21:42:27  -117.486943   +0.67  -0.70
iter:   3 21:42:29  -114.956932   +0.67  -0.92
iter:   4 21:42:30  -114.676986   -0.18  -1.20
iter:   5 21:42:32  -114.665955   -0.63  -1.52
iter:   6 21:42:32  -114.662190c  -1.09  -2.14
iter:   7 21:42:33  -114.662394c  -1.78  -2.42
iter:   8 21:42:34  -114.662158c  -2.30  -2.57
iter:   9 21:42:35  -114.662716c  -2.57  -2.84
iter:  10 21:42:35  -114.662317c  -3.11  -3.07
iter:  11 21:42:36  -114.662083c  -3.59  -3.49
iter:  12 21:42:37  -114.661981c  -3.92  -3.62
iter:  13 21:42:37  -114.662086c  -4.35  -4.08c
iter:  14 21:42:38  -114.662187c  -4.70  -4.19c
iter:  15 21:42:38  -114.662151c  -5.07  -4.45c
iter:  16 21:42:39  -114.662044c  -5.43  -4.73c
iter:  17 21:42:39  -114.662027c  -5.77  -4.93c
iter:  18 21:42:40  -114.662034c  -6.16  -5.28c
iter:  19 21:42:40  -114.662089c  -6.48  -5.57c
iter:  20 21:42:41  -114.662130c  -6.79  -5.77c
iter:  21 21:42:41  -114.662131c  -7.12  -5.86c
iter:  22 21:42:42  -114.662130c  -7.50c -5.97c

Converged after 22 iterations.

Dipole moment: (5.864567, 7.207949, 7.972114) |e|*Ang

Energy contributions relative to reference atoms: (reference = -14908.172909)

Kinetic:       +118.627711
Potential:     -134.826714
External:        +0.005354
XC:            -102.529195
Entropy (-ST):   +0.000000
Local:           +3.848239
Interactions  
 surf:           +0.212475
--------------------------
Free energy:   -114.662130
Extrapolated:  -114.662130

Solvation cavity surface area: 185.01196
Solvation cavity volume: 196.43250
 Band  Eigenvalues  Occupancy
    0    -30.73133    2.00000
    1    -30.39790    2.00000
    2    -28.49481    2.00000
    3    -28.12567    2.00000
    4    -27.64184    2.00000
    5    -23.13762    2.00000
    6    -21.50736    2.00000
    7    -19.56689    2.00000
    8    -18.39826    2.00000
    9    -17.55992    2.00000
   10    -17.20839    2.00000
   11    -16.90527    2.00000
   12    -15.44143    2.00000
   13    -14.97229    2.00000
   14    -14.93393    2.00000
   15    -14.69725    2.00000
   16    -14.33867    2.00000
   17    -14.14206    2.00000
   18    -13.64621    2.00000
   19    -13.02305    2.00000
   20    -12.57997    2.00000
   21    -12.39839    2.00000
   22    -11.84421    2.00000
   23    -11.62010    2.00000
   24    -11.47635    2.00000
   25    -10.70342    2.00000
   26    -10.48328    2.00000
   27     -9.62298    2.00000
   28     -9.47125    2.00000
   29     -4.25491    0.00000
   30     -3.91604    0.00000
   31     -3.07269    0.00000
   32     -2.44862    0.00000
   33     -2.22486    0.00000
   34     -1.97542    0.00000
   35     -1.58930    0.00000
   36     -1.52922    0.00000
   37     -1.01761    0.00000
   38     -0.91718    0.00000

Fermi level: -6.86308

Gap: 5.216 eV
Transition (v -> c):
  (s=0, k=0, n=28, [0.00, 0.00, 0.00]) -> (s=0, k=0, n=29, [0.00, 0.00, 0.00])
Input parameters:
  external: {direction: [0. 1. 0.],
             name: ConstantElectricField,
             strength: 0.01}

Initialize ...

species:
  N:
    name: Nitrogen
    id: f7500608b86eaa90eef8b1d9a670dc53
    Z: 7.0
    valence: 5
    core: 2
    charge: 0.0
    file: /home/fr/fr_fr/fr_ez1021/source/gpaw-setups/gpaw-setups-0.9.20000/N.PBE.gz
    compensation charges: {type: gauss,
                           rc: 0.18,
                           lmax: 2}
    cutoffs: {filter: 1.11,
              core: 0.96}
    valence states:
      #              energy  rcut
      - 2s(2.00)   -18.583   0.603
      - 2p(3.00)    -7.089   0.529
      -  s           8.629   0.603
      -  p          20.123   0.529
      -  d           0.000   0.577
  
    # Using partial waves for N as LCAO basis

  C:
    name: Carbon
    id: 4aa54d4b901d75f77cc0ea3eec22967b
    Z: 6.0
    valence: 4
    core: 2
    charge: 0.0
    file: /home/fr/fr_fr/fr_ez1021/source/gpaw-setups/gpaw-setups-0.9.20000/C.PBE.gz
    compensation charges: {type: gauss,
                           rc: 0.20,
                           lmax: 2}
    cutoffs: {filter: 1.14,
              core: 1.14}
    valence states:
      #              energy  rcut
      - 2s(2.00)   -13.751   0.635
      - 2p(2.00)    -5.284   0.635
      -  s          13.461   0.635
      -  p          21.927   0.635
      -  d           0.000   0.635
  
    # Using partial waves for C as LCAO basis

  O:
    name: Oxygen
    id: 32ecd46bf208036f09c70b0ec9a88b78
    Z: 8.0
    valence: 6
    core: 2
    charge: 0.0
    file: /home/fr/fr_fr/fr_ez1021/source/gpaw-setups/gpaw-setups-0.9.20000/O.PBE.gz
    compensation charges: {type: gauss,
                           rc: 0.21,
                           lmax: 2}
    cutoffs: {filter: 1.17,
              core: 0.83}
    valence states:
      #              energy  rcut
      - 2s(2.00)   -23.961   0.688
      - 2p(4.00)    -9.029   0.598
      -  s           3.251   0.688
      -  p          18.182   0.598
      -  d           0.000   0.619
  
    # Using partial waves for O as LCAO basis

  H:
    name: Hydrogen
    id: d65de229564ff8ea4db303e23b6d1ecf
    Z: 1.0
    valence: 1
    core: 0
    charge: 0.0
    file: /home/fr/fr_fr/fr_ez1021/source/gpaw-setups/gpaw-setups-0.9.20000/H.PBE.gz
    compensation charges: {type: gauss,
                           rc: 0.15,
                           lmax: 2}
    cutoffs: {filter: 0.85,
              core: 0.53}
    valence states:
      #              energy  rcut
      - 1s(1.00)    -6.494   0.476
      -  s          20.717   0.476
      -  p           0.000   0.476
  
    # Using partial waves for H as LCAO basis

Reference energy: -14908.172909  # eV

Spin-paired calculation

Convergence criteria:
 Maximum [total energy] change in last 3 cyles: 0.0005 eV / valence electron
 Maximum integral of absolute [dens]ity change: 0.0001 electrons / valence electron
 Maximum integral of absolute [eigenst]ate change: 4e-08 eV^2 / valence electron
 Maximum number of scf [iter]ations: 333
 (Square brackets indicate name in SCF output, whereas a 'c' in
 the SCF output indicates the quantity has converged.)

Symmetries present (total): 1

  ( 1  0  0)
  ( 0  1  0)
  ( 0  0  1)

1 k-point (Gamma)
1 k-point in the irreducible part of the Brillouin zone
       k-points in crystal coordinates                weights
   0:     0.00000000    0.00000000    0.00000000          1/1

Wave functions: Uniform real-space grid
  Kinetic energy operator: 6*3+1=19 point O(h^6) finite-difference Laplacian
  ScaLapack parameters: grid=1x1, blocksize=None
  Wavefunction extrapolation:
    Improved wavefunction reuse through dual PAW basis 

Occupation numbers: # Zero width 

Eigensolver
   Davidson(niter=2) 

Densities:
  Coarse grid: 64*68*72 grid
  Fine grid: 128*136*144 grid
  Total Charge: 1.000000 

Density mixing:
  Method: separate
  Backend: pulay
  Linear mixing parameter: 0.25
  old densities: 3
  Damping of long wavelength oscillations: 1  # (no daming) 

Hamiltonian:
  XC and Coulomb potentials evaluated on a 128*136*144 grid
  Using the PBE Exchange-Correlation functional
  External potential:
    Constant electric field: (0.000, 0.010, 0.000) V/Ang
  Interpolation: tri-quintic (5. degree polynomial)
  Poisson solver: Jacobi weighted FD solver with dielectric and 4 multi-grid levels
    Coarsest grid: 16 x 17 x 18 points
    Stencil: Weighted Finite Difference Operator
      6*3+1=19 point O(h^6) finite-difference Laplacian
      Finite-difference x-derivative with O(h^6) error (6 points)
      Finite-difference y-derivative with O(h^6) error (6 points)
      Finite-difference z-derivative with O(h^6) error (6 points)
    Max iterations: 1000
    Tolerance: 2.000000e-10

  Solvation:
    Cavity:  EffectivePotentialCavity
      Surface Calculator: GradientSurface with 3 nn
      Volume Calculator: KB51Volume
        compressibility: 72.57860092224
        temperature:     298.15
      EffectivePotentialCavity
        Potential: Power12Potential
          u0: 0.18eV
          pbc_cutoff: 1e-06
          tiny: 1e-10
        temperature: 298.15K    Dielectric:
      Type: LinearDielectric
      Solvent dielectric constant: 1.77    Interaction: SurfaceInteraction
      subscript: surf
      Surface_tension: 0.0011484376791625194 eV/(Angstrom^2)
XC parameters: PBE with 2 nearest neighbor stencil

Memory estimate:
  Process memory now: 264.38 MiB
  Calculator: 51.79 MiB
    Density: 5.00 MiB
      Arrays: 3.65 MiB
      Localized functions: 0.56 MiB
      Mixer: 0.80 MiB
    Hamiltonian: 35.59 MiB
      Arrays: 2.39 MiB
      XC: 0.00 MiB
      Poisson: 2.73 MiB
      vbar: 0.04 MiB
      Solvation: 30.43 MiB
    Wavefunctions: 11.19 MiB
      Arrays psit_nG: 5.17 MiB
      Eigensolver: 5.96 MiB
      Projections: 0.00 MiB
      Projectors: 0.06 MiB

Total number of cores used: 16
Domain decomposition: 2 x 2 x 4

Number of atoms: 20
Number of atomic orbitals: 50
Number of bands in calculation: 39
Number of valence electrons: 58
Bands to converge: occupied

... initialized

Initializing position-dependent things.

Solvation position-dependent initialization:
  Atomic radii for Power12Potential:
    Type    Radius   No. of atoms
       H     1.090     10
       O     1.520     4
       N     1.550     1
       C     1.700     5

Density initialized from atomic densities
Creating initial wave functions:
  39 bands from LCAO basis set

         .------------------------------.  
        /|                              |  
       / |                              |  
      /  |                              |  
     /   |                              |  
    /    |                              |  
   /     |                              |  
  /      |                              |  
 *       |                              |  
 |       |          H                   |  
 |       |             O  H             |  
 |       |       H HC   C O             |  
 |       |     H C  N  H                |  
 |       |        CHH                   |  
 |       |      H                       |  
 |       |       CO                     |  
 |       |                              |  
 |       |       O                      |  
 |       .-------H----------------------.  
 |      /                              /   
 |     /                              /    
 |    /                              /     
 |   /                              /      
 |  /                              /       
 | /                              /        
 |/                              /         
 *------------------------------*          

Positions:
   0 N      5.985838    8.496373    7.501117    ( 0.0000,  0.0000,  0.0000)
   1 C      6.066610    7.579116    8.675106    ( 0.0000,  0.0000,  0.0000)
   2 C      7.537351    7.257345    8.917785    ( 0.0000,  0.0000,  0.0000)
   3 O      8.455106    7.789255    8.312723    ( 0.0000,  0.0000,  0.0000)
   4 H      5.310221    9.252525    7.657111    ( 0.0000,  0.0000,  0.0000)
   5 H      5.687373    7.962170    6.647894    ( 0.0000,  0.0000,  0.0000)
   6 H      5.726154    8.146186    9.553318    ( 0.0000,  0.0000,  0.0000)
   7 C      5.150077    6.360539    8.514542    ( 0.0000,  0.0000,  0.0000)
   8 C      5.594126    5.268202    7.537964    ( 0.0000,  0.0000,  0.0000)
   9 C      5.435105    5.563157    6.068980    ( 0.0000,  0.0000,  0.0000)
  10 O      5.216217    6.668391    5.571457    ( 0.0000,  0.0000,  0.0000)
  11 O      5.573043    4.461447    5.318620    ( 0.0000,  0.0000,  0.0000)
  12 H      4.151550    6.730814    8.241193    ( 0.0000,  0.0000,  0.0000)
  13 H      5.055792    5.908513    9.509574    ( 0.0000,  0.0000,  0.0000)
  14 H      5.031390    4.347475    7.746313    ( 0.0000,  0.0000,  0.0000)
  15 H      6.649446    4.988739    7.690426    ( 0.0000,  0.0000,  0.0000)
  16 O      7.688504    6.354274    9.889213    ( 0.0000,  0.0000,  0.0000)
  17 H      6.907500    8.922776    7.322518    ( 0.0000,  0.0000,  0.0000)
  18 H      5.497056    4.714388    4.372389    ( 0.0000,  0.0000,  0.0000)
  19 H      8.648450    6.199729   10.027611    ( 0.0000,  0.0000,  0.0000)

Unit cell:
           periodic     x           y           z      points  spacing
  1. axis:    no    12.800000    0.000000    0.000000    64     0.2000
  2. axis:    no     0.000000   13.600000    0.000000    68     0.2000
  3. axis:    no     0.000000    0.000000   14.400000    72     0.2000

  Lengths:  12.800000  13.600000  14.400000
  Angles:   90.000000  90.000000  90.000000

Effective grid spacing dv^(1/3) = 0.2000

     iter     time        total  log10-change:
                         energy   eigst   dens
iter:   1 21:42:45  -126.374723
iter:   2 21:42:47  -117.497298   +0.67  -0.70
iter:   3 21:42:49  -114.966381   +0.67  -0.92
iter:   4 21:42:51  -114.686596   -0.18  -1.20
iter:   5 21:42:52  -114.675514   -0.63  -1.52
iter:   6 21:42:53  -114.671741c  -1.09  -2.14
iter:   7 21:42:54  -114.671932c  -1.78  -2.42
iter:   8 21:42:54  -114.671688c  -2.30  -2.57
iter:   9 21:42:55  -114.672248c  -2.57  -2.84
iter:  10 21:42:56  -114.671841c  -3.11  -3.07
iter:  11 21:42:56  -114.671612c  -3.59  -3.48
iter:  12 21:42:57  -114.671513c  -3.92  -3.62
iter:  13 21:42:58  -114.671618c  -4.35  -4.08c
iter:  14 21:42:58  -114.671721c  -4.70  -4.19c
iter:  15 21:42:59  -114.671678c  -5.07  -4.46c
iter:  16 21:42:59  -114.671571c  -5.43  -4.73c
iter:  17 21:43:00  -114.671561c  -5.78  -4.95c
iter:  18 21:43:00  -114.671563c  -6.16  -5.27c
iter:  19 21:43:01  -114.671623c  -6.49  -5.60c
iter:  20 21:43:01  -114.671669c  -6.80  -5.77c
iter:  21 21:43:02  -114.671653c  -7.16  -5.90c
iter:  22 21:43:02  -114.671665c  -7.51c -5.98c

Converged after 22 iterations.

Dipole moment: (5.855992, 7.217658, 7.971598) |e|*Ang

Energy contributions relative to reference atoms: (reference = -14908.172909)

Kinetic:       +118.632111
Potential:     -134.829645
External:        -0.004177
XC:            -102.530678
Entropy (-ST):   +0.000000
Local:           +3.848248
Interactions  
 surf:           +0.212475
--------------------------
Free energy:   -114.671665
Extrapolated:  -114.671665

Solvation cavity surface area: 185.01196
Solvation cavity volume: 196.43250
 Band  Eigenvalues  Occupancy
    0    -30.74026    2.00000
    1    -30.40144    2.00000
    2    -28.49966    2.00000
    3    -28.12655    2.00000
    4    -27.63280    2.00000
    5    -23.13459    2.00000
    6    -21.50761    2.00000
    7    -19.56753    2.00000
    8    -18.40057    2.00000
    9    -17.55478    2.00000
   10    -17.19967    2.00000
   11    -16.90063    2.00000
   12    -15.43888    2.00000
   13    -14.97204    2.00000
   14    -14.93427    2.00000
   15    -14.70097    2.00000
   16    -14.34162    2.00000
   17    -14.14280    2.00000
   18    -13.64832    2.00000
   19    -13.02461    2.00000
   20    -12.58033    2.00000
   21    -12.40371    2.00000
   22    -11.84403    2.00000
   23    -11.62013    2.00000
   24    -11.47810    2.00000
   25    -10.71217    2.00000
   26    -10.48604    2.00000
   27     -9.62816    2.00000
   28     -9.47042    2.00000
   29     -4.25725    0.00000
   30     -3.91824    0.00000
   31     -3.05304    0.00000
   32     -2.46228    0.00000
   33     -2.22755    0.00000
   34     -1.96448    0.00000
   35     -1.59139    0.00000
   36     -1.51313    0.00000
   37     -1.02495    0.00000
   38     -0.92568    0.00000

Fermi level: -6.86384

Gap: 5.213 eV
Transition (v -> c):
  (s=0, k=0, n=28, [0.00, 0.00, 0.00]) -> (s=0, k=0, n=29, [0.00, 0.00, 0.00])
Input parameters:
  external: {direction: [0. 0. 1.],
             name: ConstantElectricField,
             strength: 0.01}

Initialize ...

species:
  N:
    name: Nitrogen
    id: f7500608b86eaa90eef8b1d9a670dc53
    Z: 7.0
    valence: 5
    core: 2
    charge: 0.0
    file: /home/fr/fr_fr/fr_ez1021/source/gpaw-setups/gpaw-setups-0.9.20000/N.PBE.gz
    compensation charges: {type: gauss,
                           rc: 0.18,
                           lmax: 2}
    cutoffs: {filter: 1.11,
              core: 0.96}
    valence states:
      #              energy  rcut
      - 2s(2.00)   -18.583   0.603
      - 2p(3.00)    -7.089   0.529
      -  s           8.629   0.603
      -  p          20.123   0.529
      -  d           0.000   0.577
  
    # Using partial waves for N as LCAO basis

  C:
    name: Carbon
    id: 4aa54d4b901d75f77cc0ea3eec22967b
    Z: 6.0
    valence: 4
    core: 2
    charge: 0.0
    file: /home/fr/fr_fr/fr_ez1021/source/gpaw-setups/gpaw-setups-0.9.20000/C.PBE.gz
    compensation charges: {type: gauss,
                           rc: 0.20,
                           lmax: 2}
    cutoffs: {filter: 1.14,
              core: 1.14}
    valence states:
      #              energy  rcut
      - 2s(2.00)   -13.751   0.635
      - 2p(2.00)    -5.284   0.635
      -  s          13.461   0.635
      -  p          21.927   0.635
      -  d           0.000   0.635
  
    # Using partial waves for C as LCAO basis

  O:
    name: Oxygen
    id: 32ecd46bf208036f09c70b0ec9a88b78
    Z: 8.0
    valence: 6
    core: 2
    charge: 0.0
    file: /home/fr/fr_fr/fr_ez1021/source/gpaw-setups/gpaw-setups-0.9.20000/O.PBE.gz
    compensation charges: {type: gauss,
                           rc: 0.21,
                           lmax: 2}
    cutoffs: {filter: 1.17,
              core: 0.83}
    valence states:
      #              energy  rcut
      - 2s(2.00)   -23.961   0.688
      - 2p(4.00)    -9.029   0.598
      -  s           3.251   0.688
      -  p          18.182   0.598
      -  d           0.000   0.619
  
    # Using partial waves for O as LCAO basis

  H:
    name: Hydrogen
    id: d65de229564ff8ea4db303e23b6d1ecf
    Z: 1.0
    valence: 1
    core: 0
    charge: 0.0
    file: /home/fr/fr_fr/fr_ez1021/source/gpaw-setups/gpaw-setups-0.9.20000/H.PBE.gz
    compensation charges: {type: gauss,
                           rc: 0.15,
                           lmax: 2}
    cutoffs: {filter: 0.85,
              core: 0.53}
    valence states:
      #              energy  rcut
      - 1s(1.00)    -6.494   0.476
      -  s          20.717   0.476
      -  p           0.000   0.476
  
    # Using partial waves for H as LCAO basis

Reference energy: -14908.172909  # eV

Spin-paired calculation

Convergence criteria:
 Maximum [total energy] change in last 3 cyles: 0.0005 eV / valence electron
 Maximum integral of absolute [dens]ity change: 0.0001 electrons / valence electron
 Maximum integral of absolute [eigenst]ate change: 4e-08 eV^2 / valence electron
 Maximum number of scf [iter]ations: 333
 (Square brackets indicate name in SCF output, whereas a 'c' in
 the SCF output indicates the quantity has converged.)

Symmetries present (total): 1

  ( 1  0  0)
  ( 0  1  0)
  ( 0  0  1)

1 k-point (Gamma)
1 k-point in the irreducible part of the Brillouin zone
       k-points in crystal coordinates                weights
   0:     0.00000000    0.00000000    0.00000000          1/1

Wave functions: Uniform real-space grid
  Kinetic energy operator: 6*3+1=19 point O(h^6) finite-difference Laplacian
  ScaLapack parameters: grid=1x1, blocksize=None
  Wavefunction extrapolation:
    Improved wavefunction reuse through dual PAW basis 

Occupation numbers: # Zero width 

Eigensolver
   Davidson(niter=2) 

Densities:
  Coarse grid: 64*68*72 grid
  Fine grid: 128*136*144 grid
  Total Charge: 1.000000 

Density mixing:
  Method: separate
  Backend: pulay
  Linear mixing parameter: 0.25
  old densities: 3
  Damping of long wavelength oscillations: 1  # (no daming) 

Hamiltonian:
  XC and Coulomb potentials evaluated on a 128*136*144 grid
  Using the PBE Exchange-Correlation functional
  External potential:
    Constant electric field: (0.000, 0.000, 0.010) V/Ang
  Interpolation: tri-quintic (5. degree polynomial)
  Poisson solver: Jacobi weighted FD solver with dielectric and 4 multi-grid levels
    Coarsest grid: 16 x 17 x 18 points
    Stencil: Weighted Finite Difference Operator
      6*3+1=19 point O(h^6) finite-difference Laplacian
      Finite-difference x-derivative with O(h^6) error (6 points)
      Finite-difference y-derivative with O(h^6) error (6 points)
      Finite-difference z-derivative with O(h^6) error (6 points)
    Max iterations: 1000
    Tolerance: 2.000000e-10

  Solvation:
    Cavity:  EffectivePotentialCavity
      Surface Calculator: GradientSurface with 3 nn
      Volume Calculator: KB51Volume
        compressibility: 72.57860092224
        temperature:     298.15
      EffectivePotentialCavity
        Potential: Power12Potential
          u0: 0.18eV
          pbc_cutoff: 1e-06
          tiny: 1e-10
        temperature: 298.15K    Dielectric:
      Type: LinearDielectric
      Solvent dielectric constant: 1.77    Interaction: SurfaceInteraction
      subscript: surf
      Surface_tension: 0.0011484376791625194 eV/(Angstrom^2)
XC parameters: PBE with 2 nearest neighbor stencil

Memory estimate:
  Process memory now: 270.72 MiB
  Calculator: 51.79 MiB
    Density: 5.00 MiB
      Arrays: 3.65 MiB
      Localized functions: 0.56 MiB
      Mixer: 0.80 MiB
    Hamiltonian: 35.59 MiB
      Arrays: 2.39 MiB
      XC: 0.00 MiB
      Poisson: 2.73 MiB
      vbar: 0.04 MiB
      Solvation: 30.43 MiB
    Wavefunctions: 11.19 MiB
      Arrays psit_nG: 5.17 MiB
      Eigensolver: 5.96 MiB
      Projections: 0.00 MiB
      Projectors: 0.06 MiB

Total number of cores used: 16
Domain decomposition: 2 x 2 x 4

Number of atoms: 20
Number of atomic orbitals: 50
Number of bands in calculation: 39
Number of valence electrons: 58
Bands to converge: occupied

... initialized

Initializing position-dependent things.

Solvation position-dependent initialization:
  Atomic radii for Power12Potential:
    Type    Radius   No. of atoms
       H     1.090     10
       O     1.520     4
       N     1.550     1
       C     1.700     5

Density initialized from atomic densities
Creating initial wave functions:
  39 bands from LCAO basis set

         .------------------------------.  
        /|                              |  
       / |                              |  
      /  |                              |  
     /   |                              |  
    /    |                              |  
   /     |                              |  
  /      |                              |  
 *       |                              |  
 |       |          H                   |  
 |       |             O  H             |  
 |       |       H HC   C O             |  
 |       |     H C  N  H                |  
 |       |        CHH                   |  
 |       |      H                       |  
 |       |       CO                     |  
 |       |                              |  
 |       |       O                      |  
 |       .-------H----------------------.  
 |      /                              /   
 |     /                              /    
 |    /                              /     
 |   /                              /      
 |  /                              /       
 | /                              /        
 |/                              /         
 *------------------------------*          

Positions:
   0 N      5.985838    8.496373    7.501117    ( 0.0000,  0.0000,  0.0000)
   1 C      6.066610    7.579116    8.675106    ( 0.0000,  0.0000,  0.0000)
   2 C      7.537351    7.257345    8.917785    ( 0.0000,  0.0000,  0.0000)
   3 O      8.455106    7.789255    8.312723    ( 0.0000,  0.0000,  0.0000)
   4 H      5.310221    9.252525    7.657111    ( 0.0000,  0.0000,  0.0000)
   5 H      5.687373    7.962170    6.647894    ( 0.0000,  0.0000,  0.0000)
   6 H      5.726154    8.146186    9.553318    ( 0.0000,  0.0000,  0.0000)
   7 C      5.150077    6.360539    8.514542    ( 0.0000,  0.0000,  0.0000)
   8 C      5.594126    5.268202    7.537964    ( 0.0000,  0.0000,  0.0000)
   9 C      5.435105    5.563157    6.068980    ( 0.0000,  0.0000,  0.0000)
  10 O      5.216217    6.668391    5.571457    ( 0.0000,  0.0000,  0.0000)
  11 O      5.573043    4.461447    5.318620    ( 0.0000,  0.0000,  0.0000)
  12 H      4.151550    6.730814    8.241193    ( 0.0000,  0.0000,  0.0000)
  13 H      5.055792    5.908513    9.509574    ( 0.0000,  0.0000,  0.0000)
  14 H      5.031390    4.347475    7.746313    ( 0.0000,  0.0000,  0.0000)
  15 H      6.649446    4.988739    7.690426    ( 0.0000,  0.0000,  0.0000)
  16 O      7.688504    6.354274    9.889213    ( 0.0000,  0.0000,  0.0000)
  17 H      6.907500    8.922776    7.322518    ( 0.0000,  0.0000,  0.0000)
  18 H      5.497056    4.714388    4.372389    ( 0.0000,  0.0000,  0.0000)
  19 H      8.648450    6.199729   10.027611    ( 0.0000,  0.0000,  0.0000)

Unit cell:
           periodic     x           y           z      points  spacing
  1. axis:    no    12.800000    0.000000    0.000000    64     0.2000
  2. axis:    no     0.000000   13.600000    0.000000    68     0.2000
  3. axis:    no     0.000000    0.000000   14.400000    72     0.2000

  Lengths:  12.800000  13.600000  14.400000
  Angles:   90.000000  90.000000  90.000000

Effective grid spacing dv^(1/3) = 0.2000

     iter     time        total  log10-change:
                         energy   eigst   dens
iter:   1 21:43:06  -126.377610
iter:   2 21:43:08  -117.499152   +0.67  -0.70
iter:   3 21:43:10  -114.970330   +0.67  -0.92
iter:   4 21:43:11  -114.690237   -0.18  -1.20
iter:   5 21:43:12  -114.679089   -0.63  -1.52
iter:   6 21:43:13  -114.675343c  -1.09  -2.14
iter:   7 21:43:14  -114.675548c  -1.78  -2.42
iter:   8 21:43:15  -114.675310c  -2.30  -2.57
iter:   9 21:43:16  -114.675866c  -2.57  -2.85
iter:  10 21:43:16  -114.675472c  -3.11  -3.07
iter:  11 21:43:17  -114.675239c  -3.59  -3.49
iter:  12 21:43:18  -114.675137c  -3.92  -3.62
iter:  13 21:43:18  -114.675243c  -4.35  -4.09c
iter:  14 21:43:19  -114.675341c  -4.70  -4.20c
iter:  15 21:43:19  -114.675311c  -5.07  -4.45c
iter:  16 21:43:20  -114.675205c  -5.43  -4.74c
iter:  17 21:43:20  -114.675179c  -5.77  -4.93c
iter:  18 21:43:21  -114.675192c  -6.15  -5.30c
iter:  19 21:43:21  -114.675244c  -6.48  -5.54c
iter:  20 21:43:22  -114.675288c  -6.79  -5.77c
iter:  21 21:43:22  -114.675296c  -7.10  -5.84c
iter:  22 21:43:23  -114.675280c  -7.48c -5.97c

Converged after 22 iterations.

Dipole moment: (5.856354, 7.207795, 7.981393) |e|*Ang

Energy contributions relative to reference atoms: (reference = -14908.172909)

Kinetic:       +118.632681
Potential:     -134.829850
External:        -0.007814
XC:            -102.531041
Entropy (-ST):   +0.000000
Local:           +3.848270
Interactions  
 surf:           +0.212475
--------------------------
Free energy:   -114.675280
Extrapolated:  -114.675280

Solvation cavity surface area: 185.01196
Solvation cavity volume: 196.43250
 Band  Eigenvalues  Occupancy
    0    -30.72479    2.00000
    1    -30.40093    2.00000
    2    -28.48968    2.00000
    3    -28.12676    2.00000
    4    -27.63469    2.00000
    5    -23.12464    2.00000
    6    -21.49863    2.00000
    7    -19.55743    2.00000
    8    -18.39042    2.00000
    9    -17.55245    2.00000
   10    -17.20105    2.00000
   11    -16.89889    2.00000
   12    -15.43308    2.00000
   13    -14.96438    2.00000
   14    -14.92905    2.00000
   15    -14.69313    2.00000
   16    -14.33253    2.00000
   17    -14.13834    2.00000
   18    -13.64046    2.00000
   19    -13.01326    2.00000
   20    -12.57317    2.00000
   21    -12.39145    2.00000
   22    -11.83257    2.00000
   23    -11.61100    2.00000
   24    -11.46632    2.00000
   25    -10.69809    2.00000
   26    -10.48625    2.00000
   27     -9.61992    2.00000
   28     -9.47079    2.00000
   29     -4.24681    0.00000
   30     -3.91532    0.00000
   31     -3.06094    0.00000
   32     -2.44279    0.00000
   33     -2.22880    0.00000
   34     -1.96478    0.00000
   35     -1.57420    0.00000
   36     -1.50965    0.00000
   37     -1.01609    0.00000
   38     -0.91137    0.00000

Fermi level: -6.85880

Gap: 5.224 eV
Transition (v -> c):
  (s=0, k=0, n=28, [0.00, 0.00, 0.00]) -> (s=0, k=0, n=29, [0.00, 0.00, 0.00])
Input parameters:
  external: None

Initialize ...

species:
  N:
    name: Nitrogen
    id: f7500608b86eaa90eef8b1d9a670dc53
    Z: 7.0
    valence: 5
    core: 2
    charge: 0.0
    file: /home/fr/fr_fr/fr_ez1021/source/gpaw-setups/gpaw-setups-0.9.20000/N.PBE.gz
    compensation charges: {type: gauss,
                           rc: 0.18,
                           lmax: 2}
    cutoffs: {filter: 1.11,
              core: 0.96}
    valence states:
      #              energy  rcut
      - 2s(2.00)   -18.583   0.603
      - 2p(3.00)    -7.089   0.529
      -  s           8.629   0.603
      -  p          20.123   0.529
      -  d           0.000   0.577
  
    # Using partial waves for N as LCAO basis

  C:
    name: Carbon
    id: 4aa54d4b901d75f77cc0ea3eec22967b
    Z: 6.0
    valence: 4
    core: 2
    charge: 0.0
    file: /home/fr/fr_fr/fr_ez1021/source/gpaw-setups/gpaw-setups-0.9.20000/C.PBE.gz
    compensation charges: {type: gauss,
                           rc: 0.20,
                           lmax: 2}
    cutoffs: {filter: 1.14,
              core: 1.14}
    valence states:
      #              energy  rcut
      - 2s(2.00)   -13.751   0.635
      - 2p(2.00)    -5.284   0.635
      -  s          13.461   0.635
      -  p          21.927   0.635
      -  d           0.000   0.635
  
    # Using partial waves for C as LCAO basis

  O:
    name: Oxygen
    id: 32ecd46bf208036f09c70b0ec9a88b78
    Z: 8.0
    valence: 6
    core: 2
    charge: 0.0
    file: /home/fr/fr_fr/fr_ez1021/source/gpaw-setups/gpaw-setups-0.9.20000/O.PBE.gz
    compensation charges: {type: gauss,
                           rc: 0.21,
                           lmax: 2}
    cutoffs: {filter: 1.17,
              core: 0.83}
    valence states:
      #              energy  rcut
      - 2s(2.00)   -23.961   0.688
      - 2p(4.00)    -9.029   0.598
      -  s           3.251   0.688
      -  p          18.182   0.598
      -  d           0.000   0.619
  
    # Using partial waves for O as LCAO basis

  H:
    name: Hydrogen
    id: d65de229564ff8ea4db303e23b6d1ecf
    Z: 1.0
    valence: 1
    core: 0
    charge: 0.0
    file: /home/fr/fr_fr/fr_ez1021/source/gpaw-setups/gpaw-setups-0.9.20000/H.PBE.gz
    compensation charges: {type: gauss,
                           rc: 0.15,
                           lmax: 2}
    cutoffs: {filter: 0.85,
              core: 0.53}
    valence states:
      #              energy  rcut
      - 1s(1.00)    -6.494   0.476
      -  s          20.717   0.476
      -  p           0.000   0.476
  
    # Using partial waves for H as LCAO basis

Reference energy: -14908.172909  # eV

Spin-paired calculation

Convergence criteria:
 Maximum [total energy] change in last 3 cyles: 0.0005 eV / valence electron
 Maximum integral of absolute [dens]ity change: 0.0001 electrons / valence electron
 Maximum integral of absolute [eigenst]ate change: 4e-08 eV^2 / valence electron
 Maximum number of scf [iter]ations: 333
 (Square brackets indicate name in SCF output, whereas a 'c' in
 the SCF output indicates the quantity has converged.)

Symmetries present (total): 1

  ( 1  0  0)
  ( 0  1  0)
  ( 0  0  1)

1 k-point (Gamma)
1 k-point in the irreducible part of the Brillouin zone
       k-points in crystal coordinates                weights
   0:     0.00000000    0.00000000    0.00000000          1/1

Wave functions: Uniform real-space grid
  Kinetic energy operator: 6*3+1=19 point O(h^6) finite-difference Laplacian
  ScaLapack parameters: grid=1x1, blocksize=None
  Wavefunction extrapolation:
    Improved wavefunction reuse through dual PAW basis 

Occupation numbers: # Zero width 

Eigensolver
   Davidson(niter=2) 

Densities:
  Coarse grid: 64*68*72 grid
  Fine grid: 128*136*144 grid
  Total Charge: 1.000000 

Density mixing:
  Method: separate
  Backend: pulay
  Linear mixing parameter: 0.25
  old densities: 3
  Damping of long wavelength oscillations: 1  # (no daming) 

Hamiltonian:
  XC and Coulomb potentials evaluated on a 128*136*144 grid
  Using the PBE Exchange-Correlation functional
  Interpolation: tri-quintic (5. degree polynomial)
  Poisson solver: Jacobi weighted FD solver with dielectric and 4 multi-grid levels
    Coarsest grid: 16 x 17 x 18 points
    Stencil: Weighted Finite Difference Operator
      6*3+1=19 point O(h^6) finite-difference Laplacian
      Finite-difference x-derivative with O(h^6) error (6 points)
      Finite-difference y-derivative with O(h^6) error (6 points)
      Finite-difference z-derivative with O(h^6) error (6 points)
    Max iterations: 1000
    Tolerance: 2.000000e-10

  Solvation:
    Cavity:  EffectivePotentialCavity
      Surface Calculator: GradientSurface with 3 nn
      Volume Calculator: KB51Volume
        compressibility: 72.57860092224
        temperature:     298.15
      EffectivePotentialCavity
        Potential: Power12Potential
          u0: 0.18eV
          pbc_cutoff: 1e-06
          tiny: 1e-10
        temperature: 298.15K    Dielectric:
      Type: LinearDielectric
      Solvent dielectric constant: 1.77    Interaction: SurfaceInteraction
      subscript: surf
      Surface_tension: 0.0011484376791625194 eV/(Angstrom^2)
XC parameters: PBE with 2 nearest neighbor stencil

Memory estimate:
  Process memory now: 274.65 MiB
  Calculator: 51.79 MiB
    Density: 5.00 MiB
      Arrays: 3.65 MiB
      Localized functions: 0.56 MiB
      Mixer: 0.80 MiB
    Hamiltonian: 35.59 MiB
      Arrays: 2.39 MiB
      XC: 0.00 MiB
      Poisson: 2.73 MiB
      vbar: 0.04 MiB
      Solvation: 30.43 MiB
    Wavefunctions: 11.19 MiB
      Arrays psit_nG: 5.17 MiB
      Eigensolver: 5.96 MiB
      Projections: 0.00 MiB
      Projectors: 0.06 MiB

Total number of cores used: 16
Domain decomposition: 2 x 2 x 4

Number of atoms: 20
Number of atomic orbitals: 50
Number of bands in calculation: 39
Number of valence electrons: 58
Bands to converge: occupied

... initialized

Initializing position-dependent things.

Solvation position-dependent initialization:
  Atomic radii for Power12Potential:
    Type    Radius   No. of atoms
       H     1.090     10
       O     1.520     4
       N     1.550     1
       C     1.700     5

Density initialized from atomic densities
Creating initial wave functions:
  39 bands from LCAO basis set

         .------------------------------.  
        /|                              |  
       / |                              |  
      /  |                              |  
     /   |                              |  
    /    |                              |  
   /     |                              |  
  /      |                              |  
 *       |                              |  
 |       |          H                   |  
 |       |             O  H             |  
 |       |       H HC   C O             |  
 |       |     H C  N  H                |  
 |       |        CHH                   |  
 |       |      H                       |  
 |       |       CO                     |  
 |       |                              |  
 |       |       O                      |  
 |       .-------H----------------------.  
 |      /                              /   
 |     /                              /    
 |    /                              /     
 |   /                              /      
 |  /                              /       
 | /                              /        
 |/                              /         
 *------------------------------*          

Positions:
   0 N      5.985838    8.496373    7.501117    ( 0.0000,  0.0000,  0.0000)
   1 C      6.066610    7.579116    8.675106    ( 0.0000,  0.0000,  0.0000)
   2 C      7.537351    7.257345    8.917785    ( 0.0000,  0.0000,  0.0000)
   3 O      8.455106    7.789255    8.312723    ( 0.0000,  0.0000,  0.0000)
   4 H      5.310221    9.252525    7.657111    ( 0.0000,  0.0000,  0.0000)
   5 H      5.687373    7.962170    6.647894    ( 0.0000,  0.0000,  0.0000)
   6 H      5.726154    8.146186    9.553318    ( 0.0000,  0.0000,  0.0000)
   7 C      5.150077    6.360539    8.514542    ( 0.0000,  0.0000,  0.0000)
   8 C      5.594126    5.268202    7.537964    ( 0.0000,  0.0000,  0.0000)
   9 C      5.435105    5.563157    6.068980    ( 0.0000,  0.0000,  0.0000)
  10 O      5.216217    6.668391    5.571457    ( 0.0000,  0.0000,  0.0000)
  11 O      5.573043    4.461447    5.318620    ( 0.0000,  0.0000,  0.0000)
  12 H      4.151550    6.730814    8.241193    ( 0.0000,  0.0000,  0.0000)
  13 H      5.055792    5.908513    9.509574    ( 0.0000,  0.0000,  0.0000)
  14 H      5.031390    4.347475    7.746313    ( 0.0000,  0.0000,  0.0000)
  15 H      6.649446    4.988739    7.690426    ( 0.0000,  0.0000,  0.0000)
  16 O      7.688504    6.354274    9.889213    ( 0.0000,  0.0000,  0.0000)
  17 H      6.907500    8.922776    7.322518    ( 0.0000,  0.0000,  0.0000)
  18 H      5.497056    4.714388    4.372389    ( 0.0000,  0.0000,  0.0000)
  19 H      8.648450    6.199729   10.027611    ( 0.0000,  0.0000,  0.0000)

Unit cell:
           periodic     x           y           z      points  spacing
  1. axis:    no    12.800000    0.000000    0.000000    64     0.2000
  2. axis:    no     0.000000   13.600000    0.000000    68     0.2000
  3. axis:    no     0.000000    0.000000   14.400000    72     0.2000

  Lengths:  12.800000  13.600000  14.400000
  Angles:   90.000000  90.000000  90.000000

Effective grid spacing dv^(1/3) = 0.2000

     iter     time        total  log10-change:
                         energy   eigst   dens
iter:   1 21:43:26  -126.369500
iter:   2 21:43:28  -117.492264   +0.67  -0.70
iter:   3 21:43:30  -114.962457   +0.67  -0.92
iter:   4 21:43:32  -114.682469   -0.18  -1.20
iter:   5 21:43:33  -114.671369   -0.63  -1.52
iter:   6 21:43:34  -114.667593c  -1.09  -2.14
iter:   7 21:43:35  -114.667792c  -1.78  -2.42
iter:   8 21:43:35  -114.667553c  -2.30  -2.57
iter:   9 21:43:36  -114.668112c  -2.57  -2.85
iter:  10 21:43:37  -114.667713c  -3.11  -3.07
iter:  11 21:43:37  -114.667481c  -3.59  -3.49
iter:  12 21:43:38  -114.667380c  -3.92  -3.62
iter:  13 21:43:39  -114.667485c  -4.35  -4.08c
iter:  14 21:43:39  -114.667585c  -4.70  -4.19c
iter:  15 21:43:40  -114.667550c  -5.07  -4.45c
iter:  16 21:43:40  -114.667443c  -5.43  -4.73c
iter:  17 21:43:41  -114.667424c  -5.77  -4.93c
iter:  18 21:43:41  -114.667433c  -6.16  -5.28c
iter:  19 21:43:42  -114.667487c  -6.49  -5.56c
iter:  20 21:43:42  -114.667529c  -6.79  -5.77c
iter:  21 21:43:43  -114.667531c  -7.12  -5.86c
iter:  22 21:43:43  -114.667527c  -7.50c -5.97c

Converged after 22 iterations.

Dipole moment: (5.855829, 7.207786, 7.971589) |e|*Ang

Energy contributions relative to reference atoms: (reference = -14908.172909)

Kinetic:       +118.629469
Potential:     -134.827726
External:        +0.000000
XC:            -102.530006
Entropy (-ST):   +0.000000
Local:           +3.848261
Interactions  
 surf:           +0.212475
--------------------------
Free energy:   -114.667527
Extrapolated:  -114.667527

Solvation cavity surface area: 185.01196
Solvation cavity volume: 196.43250
 Band  Eigenvalues  Occupancy
    0    -30.74187    2.00000
    1    -30.38941    2.00000
    2    -28.50340    2.00000
    3    -28.11845    2.00000
    4    -27.63992    2.00000
    5    -23.13248    2.00000
    6    -21.50388    2.00000
    7    -19.56333    2.00000
    8    -18.40045    2.00000
    9    -17.55768    2.00000
   10    -17.20417    2.00000
   11    -16.90026    2.00000
   12    -15.43882    2.00000
   13    -14.96975    2.00000
   14    -14.92920    2.00000
   15    -14.70433    2.00000
   16    -14.33897    2.00000
   17    -14.13851    2.00000
   18    -13.64453    2.00000
   19    -13.02205    2.00000
   20    -12.57258    2.00000
   21    -12.40186    2.00000
   22    -11.83944    2.00000
   23    -11.61296    2.00000
   24    -11.47103    2.00000
   25    -10.71430    2.00000
   26    -10.47468    2.00000
   27     -9.63184    2.00000
   28     -9.46383    2.00000
   29     -4.26120    0.00000
   30     -3.90802    0.00000
   31     -3.06787    0.00000
   32     -2.45862    0.00000
   33     -2.21965    0.00000
   34     -1.96978    0.00000
   35     -1.58042    0.00000
   36     -1.51939    0.00000
   37     -1.02704    0.00000
   38     -0.91917    0.00000

Fermi level: -6.86251

Gap: 5.203 eV
Transition (v -> c):
  (s=0, k=0, n=28, [0.00, 0.00, 0.00]) -> (s=0, k=0, n=29, [0.00, 0.00, 0.00])
Input parameters:
  external: {direction: [1. 0. 0.],
             name: ConstantElectricField,
             strength: 0.01169603524229075}

Initialize ...

species:
  N:
    name: Nitrogen
    id: f7500608b86eaa90eef8b1d9a670dc53
    Z: 7.0
    valence: 5
    core: 2
    charge: 0.0
    file: /home/fr/fr_fr/fr_ez1021/source/gpaw-setups/gpaw-setups-0.9.20000/N.PBE.gz
    compensation charges: {type: gauss,
                           rc: 0.18,
                           lmax: 2}
    cutoffs: {filter: 1.11,
              core: 0.96}
    valence states:
      #              energy  rcut
      - 2s(2.00)   -18.583   0.603
      - 2p(3.00)    -7.089   0.529
      -  s           8.629   0.603
      -  p          20.123   0.529
      -  d           0.000   0.577
  
    # Using partial waves for N as LCAO basis

  C:
    name: Carbon
    id: 4aa54d4b901d75f77cc0ea3eec22967b
    Z: 6.0
    valence: 4
    core: 2
    charge: 0.0
    file: /home/fr/fr_fr/fr_ez1021/source/gpaw-setups/gpaw-setups-0.9.20000/C.PBE.gz
    compensation charges: {type: gauss,
                           rc: 0.20,
                           lmax: 2}
    cutoffs: {filter: 1.14,
              core: 1.14}
    valence states:
      #              energy  rcut
      - 2s(2.00)   -13.751   0.635
      - 2p(2.00)    -5.284   0.635
      -  s          13.461   0.635
      -  p          21.927   0.635
      -  d           0.000   0.635
  
    # Using partial waves for C as LCAO basis

  O:
    name: Oxygen
    id: 32ecd46bf208036f09c70b0ec9a88b78
    Z: 8.0
    valence: 6
    core: 2
    charge: 0.0
    file: /home/fr/fr_fr/fr_ez1021/source/gpaw-setups/gpaw-setups-0.9.20000/O.PBE.gz
    compensation charges: {type: gauss,
                           rc: 0.21,
                           lmax: 2}
    cutoffs: {filter: 1.17,
              core: 0.83}
    valence states:
      #              energy  rcut
      - 2s(2.00)   -23.961   0.688
      - 2p(4.00)    -9.029   0.598
      -  s           3.251   0.688
      -  p          18.182   0.598
      -  d           0.000   0.619
  
    # Using partial waves for O as LCAO basis

  H:
    name: Hydrogen
    id: d65de229564ff8ea4db303e23b6d1ecf
    Z: 1.0
    valence: 1
    core: 0
    charge: 0.0
    file: /home/fr/fr_fr/fr_ez1021/source/gpaw-setups/gpaw-setups-0.9.20000/H.PBE.gz
    compensation charges: {type: gauss,
                           rc: 0.15,
                           lmax: 2}
    cutoffs: {filter: 0.85,
              core: 0.53}
    valence states:
      #              energy  rcut
      - 1s(1.00)    -6.494   0.476
      -  s          20.717   0.476
      -  p           0.000   0.476
  
    # Using partial waves for H as LCAO basis

Reference energy: -14908.172909  # eV

Spin-paired calculation

Convergence criteria:
 Maximum [total energy] change in last 3 cyles: 0.0005 eV / valence electron
 Maximum integral of absolute [dens]ity change: 0.0001 electrons / valence electron
 Maximum integral of absolute [eigenst]ate change: 4e-08 eV^2 / valence electron
 Maximum number of scf [iter]ations: 333
 (Square brackets indicate name in SCF output, whereas a 'c' in
 the SCF output indicates the quantity has converged.)

Symmetries present (total): 1

  ( 1  0  0)
  ( 0  1  0)
  ( 0  0  1)

1 k-point (Gamma)
1 k-point in the irreducible part of the Brillouin zone
       k-points in crystal coordinates                weights
   0:     0.00000000    0.00000000    0.00000000          1/1

Wave functions: Uniform real-space grid
  Kinetic energy operator: 6*3+1=19 point O(h^6) finite-difference Laplacian
  ScaLapack parameters: grid=1x1, blocksize=None
  Wavefunction extrapolation:
    Improved wavefunction reuse through dual PAW basis 

Occupation numbers: # Zero width 

Eigensolver
   Davidson(niter=2) 

Densities:
  Coarse grid: 64*68*72 grid
  Fine grid: 128*136*144 grid
  Total Charge: 1.000000 

Density mixing:
  Method: separate
  Backend: pulay
  Linear mixing parameter: 0.25
  old densities: 3
  Damping of long wavelength oscillations: 1  # (no daming) 

Hamiltonian:
  XC and Coulomb potentials evaluated on a 128*136*144 grid
  Using the PBE Exchange-Correlation functional
  External potential:
    Constant electric field: (0.012, 0.000, 0.000) V/Ang
  Interpolation: tri-quintic (5. degree polynomial)
  Poisson solver: Jacobi weighted FD solver with dielectric and 4 multi-grid levels
    Coarsest grid: 16 x 17 x 18 points
    Stencil: Weighted Finite Difference Operator
      6*3+1=19 point O(h^6) finite-difference Laplacian
      Finite-difference x-derivative with O(h^6) error (6 points)
      Finite-difference y-derivative with O(h^6) error (6 points)
      Finite-difference z-derivative with O(h^6) error (6 points)
    Max iterations: 1000
    Tolerance: 2.000000e-10

  Solvation:
    Cavity:  EffectivePotentialCavity
      Surface Calculator: GradientSurface with 3 nn
      Volume Calculator: KB51Volume
        compressibility: 72.57860092224
        temperature:     298.15
      EffectivePotentialCavity
        Potential: Power12Potential
          u0: 0.18eV
          pbc_cutoff: 1e-06
          tiny: 1e-10
        temperature: 298.15K    Dielectric:
      Type: LinearDielectric
      Solvent dielectric constant: 1.77    Interaction: SurfaceInteraction
      subscript: surf
      Surface_tension: 0.0011484376791625194 eV/(Angstrom^2)
XC parameters: PBE with 2 nearest neighbor stencil

Memory estimate:
  Process memory now: 279.24 MiB
  Calculator: 51.79 MiB
    Density: 5.00 MiB
      Arrays: 3.65 MiB
      Localized functions: 0.56 MiB
      Mixer: 0.80 MiB
    Hamiltonian: 35.59 MiB
      Arrays: 2.39 MiB
      XC: 0.00 MiB
      Poisson: 2.73 MiB
      vbar: 0.04 MiB
      Solvation: 30.43 MiB
    Wavefunctions: 11.19 MiB
      Arrays psit_nG: 5.17 MiB
      Eigensolver: 5.96 MiB
      Projections: 0.00 MiB
      Projectors: 0.06 MiB

Total number of cores used: 16
Domain decomposition: 2 x 2 x 4

Number of atoms: 20
Number of atomic orbitals: 50
Number of bands in calculation: 39
Number of valence electrons: 58
Bands to converge: occupied

... initialized

Initializing position-dependent things.

Solvation position-dependent initialization:
  Atomic radii for Power12Potential:
    Type    Radius   No. of atoms
       H     1.090     10
       O     1.520     4
       N     1.550     1
       C     1.700     5

Density initialized from atomic densities
Creating initial wave functions:
  39 bands from LCAO basis set

         .------------------------------.  
        /|                              |  
       / |                              |  
      /  |                              |  
     /   |                              |  
    /    |                              |  
   /     |                              |  
  /      |                              |  
 *       |                              |  
 |       |          H                   |  
 |       |             O  H             |  
 |       |       H HC   C O             |  
 |       |     H C  N  H                |  
 |       |        CHH                   |  
 |       |      H                       |  
 |       |       CO                     |  
 |       |                              |  
 |       |       O                      |  
 |       .-------H----------------------.  
 |      /                              /   
 |     /                              /    
 |    /                              /     
 |   /                              /      
 |  /                              /       
 | /                              /        
 |/                              /         
 *------------------------------*          

Positions:
   0 N      5.985838    8.496373    7.501117    ( 0.0000,  0.0000,  0.0000)
   1 C      6.066610    7.579116    8.675106    ( 0.0000,  0.0000,  0.0000)
   2 C      7.537351    7.257345    8.917785    ( 0.0000,  0.0000,  0.0000)
   3 O      8.455106    7.789255    8.312723    ( 0.0000,  0.0000,  0.0000)
   4 H      5.310221    9.252525    7.657111    ( 0.0000,  0.0000,  0.0000)
   5 H      5.687373    7.962170    6.647894    ( 0.0000,  0.0000,  0.0000)
   6 H      5.726154    8.146186    9.553318    ( 0.0000,  0.0000,  0.0000)
   7 C      5.150077    6.360539    8.514542    ( 0.0000,  0.0000,  0.0000)
   8 C      5.594126    5.268202    7.537964    ( 0.0000,  0.0000,  0.0000)
   9 C      5.435105    5.563157    6.068980    ( 0.0000,  0.0000,  0.0000)
  10 O      5.216217    6.668391    5.571457    ( 0.0000,  0.0000,  0.0000)
  11 O      5.573043    4.461447    5.318620    ( 0.0000,  0.0000,  0.0000)
  12 H      4.151550    6.730814    8.241193    ( 0.0000,  0.0000,  0.0000)
  13 H      5.055792    5.908513    9.509574    ( 0.0000,  0.0000,  0.0000)
  14 H      5.031390    4.347475    7.746313    ( 0.0000,  0.0000,  0.0000)
  15 H      6.649446    4.988739    7.690426    ( 0.0000,  0.0000,  0.0000)
  16 O      7.688504    6.354274    9.889213    ( 0.0000,  0.0000,  0.0000)
  17 H      6.907500    8.922776    7.322518    ( 0.0000,  0.0000,  0.0000)
  18 H      5.497056    4.714388    4.372389    ( 0.0000,  0.0000,  0.0000)
  19 H      8.648450    6.199729   10.027611    ( 0.0000,  0.0000,  0.0000)

Unit cell:
           periodic     x           y           z      points  spacing
  1. axis:    no    12.800000    0.000000    0.000000    64     0.2000
  2. axis:    no     0.000000   13.600000    0.000000    68     0.2000
  3. axis:    no     0.000000    0.000000   14.400000    72     0.2000

  Lengths:  12.800000  13.600000  14.400000
  Angles:   90.000000  90.000000  90.000000

Effective grid spacing dv^(1/3) = 0.2000

     iter     time        total  log10-change:
                         energy   eigst   dens
iter:   1 21:43:47  -126.363010
iter:   2 21:43:49  -117.486050   +0.67  -0.70
iter:   3 21:43:50  -114.956004   +0.68  -0.92
iter:   4 21:43:52  -114.676065   -0.18  -1.20
iter:   5 21:43:53  -114.665045   -0.63  -1.52
iter:   6 21:43:54  -114.661283c  -1.09  -2.14
iter:   7 21:43:55  -114.661488c  -1.78  -2.42
iter:   8 21:43:56  -114.661252c  -2.30  -2.57
iter:   9 21:43:56  -114.661809c  -2.57  -2.84
iter:  10 21:43:57  -114.661411c  -3.11  -3.07
iter:  11 21:43:58  -114.661176c  -3.59  -3.49
iter:  12 21:43:58  -114.661074c  -3.92  -3.62
iter:  13 21:43:59  -114.661179c  -4.35  -4.08c
iter:  14 21:44:00  -114.661280c  -4.70  -4.19c
iter:  15 21:44:00  -114.661244c  -5.07  -4.45c
iter:  16 21:44:01  -114.661137c  -5.43  -4.73c
iter:  17 21:44:01  -114.661120c  -5.77  -4.93c
iter:  18 21:44:02  -114.661127c  -6.16  -5.28c
iter:  19 21:44:02  -114.661182c  -6.48  -5.57c
iter:  20 21:44:03  -114.661223c  -6.79  -5.77c
iter:  21 21:44:03  -114.661224c  -7.12  -5.86c
iter:  22 21:44:04  -114.661223c  -7.50c -5.97c

Converged after 22 iterations.

Dipole moment: (5.866049, 7.207977, 7.972203) |e|*Ang

Energy contributions relative to reference atoms: (reference = -14908.172909)

Kinetic:       +118.627406
Potential:     -134.826532
External:        +0.006245
XC:            -102.529052
Entropy (-ST):   +0.000000
Local:           +3.848235
Interactions  
 surf:           +0.212475
--------------------------
Free energy:   -114.661223
Extrapolated:  -114.661223

Solvation cavity surface area: 185.01196
Solvation cavity volume: 196.43250
 Band  Eigenvalues  Occupancy
    0    -30.72954    2.00000
    1    -30.39934    2.00000
    2    -28.49337    2.00000
    3    -28.12689    2.00000
    4    -27.64216    2.00000
    5    -23.13850    2.00000
    6    -21.50795    2.00000
    7    -19.56750    2.00000
    8    -18.39789    2.00000
    9    -17.56029    2.00000
   10    -17.20911    2.00000
   11    -16.90612    2.00000
   12    -15.44188    2.00000
   13    -14.97274    2.00000
   14    -14.93475    2.00000
   15    -14.69605    2.00000
   16    -14.33861    2.00000
   17    -14.14266    2.00000
   18    -13.64650    2.00000
   19    -13.02322    2.00000
   20    -12.58124    2.00000
   21    -12.39779    2.00000
   22    -11.84502    2.00000
   23    -11.62131    2.00000
   24    -11.47726    2.00000
   25    -10.70158    2.00000
   26    -10.48474    2.00000
   27     -9.62150    2.00000
   28     -9.47248    2.00000
   29     -4.25385    0.00000
   30     -3.91740    0.00000
   31     -3.07354    0.00000
   32     -2.44699    0.00000
   33     -2.22575    0.00000
   34     -1.97639    0.00000
   35     -1.59084    0.00000
   36     -1.53087    0.00000
   37     -1.01607    0.00000
   38     -0.91679    0.00000

Fermi level: -6.86317

Gap: 5.219 eV
Transition (v -> c):
  (s=0, k=0, n=28, [0.00, 0.00, 0.00]) -> (s=0, k=0, n=29, [0.00, 0.00, 0.00])
Input parameters:
  external: {direction: [0. 1. 0.],
             name: ConstantElectricField,
             strength: 0.01169603524229075}

Initialize ...

species:
  N:
    name: Nitrogen
    id: f7500608b86eaa90eef8b1d9a670dc53
    Z: 7.0
    valence: 5
    core: 2
    charge: 0.0
    file: /home/fr/fr_fr/fr_ez1021/source/gpaw-setups/gpaw-setups-0.9.20000/N.PBE.gz
    compensation charges: {type: gauss,
                           rc: 0.18,
                           lmax: 2}
    cutoffs: {filter: 1.11,
              core: 0.96}
    valence states:
      #              energy  rcut
      - 2s(2.00)   -18.583   0.603
      - 2p(3.00)    -7.089   0.529
      -  s           8.629   0.603
      -  p          20.123   0.529
      -  d           0.000   0.577
  
    # Using partial waves for N as LCAO basis

  C:
    name: Carbon
    id: 4aa54d4b901d75f77cc0ea3eec22967b
    Z: 6.0
    valence: 4
    core: 2
    charge: 0.0
    file: /home/fr/fr_fr/fr_ez1021/source/gpaw-setups/gpaw-setups-0.9.20000/C.PBE.gz
    compensation charges: {type: gauss,
                           rc: 0.20,
                           lmax: 2}
    cutoffs: {filter: 1.14,
              core: 1.14}
    valence states:
      #              energy  rcut
      - 2s(2.00)   -13.751   0.635
      - 2p(2.00)    -5.284   0.635
      -  s          13.461   0.635
      -  p          21.927   0.635
      -  d           0.000   0.635
  
    # Using partial waves for C as LCAO basis

  O:
    name: Oxygen
    id: 32ecd46bf208036f09c70b0ec9a88b78
    Z: 8.0
    valence: 6
    core: 2
    charge: 0.0
    file: /home/fr/fr_fr/fr_ez1021/source/gpaw-setups/gpaw-setups-0.9.20000/O.PBE.gz
    compensation charges: {type: gauss,
                           rc: 0.21,
                           lmax: 2}
    cutoffs: {filter: 1.17,
              core: 0.83}
    valence states:
      #              energy  rcut
      - 2s(2.00)   -23.961   0.688
      - 2p(4.00)    -9.029   0.598
      -  s           3.251   0.688
      -  p          18.182   0.598
      -  d           0.000   0.619
  
    # Using partial waves for O as LCAO basis

  H:
    name: Hydrogen
    id: d65de229564ff8ea4db303e23b6d1ecf
    Z: 1.0
    valence: 1
    core: 0
    charge: 0.0
    file: /home/fr/fr_fr/fr_ez1021/source/gpaw-setups/gpaw-setups-0.9.20000/H.PBE.gz
    compensation charges: {type: gauss,
                           rc: 0.15,
                           lmax: 2}
    cutoffs: {filter: 0.85,
              core: 0.53}
    valence states:
      #              energy  rcut
      - 1s(1.00)    -6.494   0.476
      -  s          20.717   0.476
      -  p           0.000   0.476
  
    # Using partial waves for H as LCAO basis

Reference energy: -14908.172909  # eV

Spin-paired calculation

Convergence criteria:
 Maximum [total energy] change in last 3 cyles: 0.0005 eV / valence electron
 Maximum integral of absolute [dens]ity change: 0.0001 electrons / valence electron
 Maximum integral of absolute [eigenst]ate change: 4e-08 eV^2 / valence electron
 Maximum number of scf [iter]ations: 333
 (Square brackets indicate name in SCF output, whereas a 'c' in
 the SCF output indicates the quantity has converged.)

Symmetries present (total): 1

  ( 1  0  0)
[...]
  17 H      6.907500    8.922776    7.322518    ( 0.0000,  0.0000,  0.0000)
  18 H      5.497056    4.714388    4.372389    ( 0.0000,  0.0000,  0.0000)
  19 H      8.648450    6.199729   10.027611    ( 0.0000,  0.0000,  0.0000)

Unit cell:
           periodic     x           y           z      points  spacing
  1. axis:    no    12.800000    0.000000    0.000000    64     0.2000
  2. axis:    no     0.000000   13.600000    0.000000    68     0.2000
  3. axis:    no     0.000000    0.000000   14.400000    72     0.2000

  Lengths:  12.800000  13.600000  14.400000
  Angles:   90.000000  90.000000  90.000000

Effective grid spacing dv^(1/3) = 0.2000

     iter     time        total  log10-change:
                         energy   eigst   dens
iter:   1 21:50:58  -126.376573
iter:   2 21:51:00  -117.499081   +0.67  -0.70
iter:   3 21:51:02  -114.967775   +0.68  -0.92
iter:   4 21:51:03  -114.688060   -0.18  -1.20
iter:   5 21:51:05  -114.676985   -0.63  -1.52
iter:   6 21:51:06  -114.673212c  -1.09  -2.14
iter:   7 21:51:06  -114.673400c  -1.78  -2.42
iter:   8 21:51:07  -114.673155c  -2.30  -2.57
iter:   9 21:51:08  -114.673716c  -2.57  -2.84
iter:  10 21:51:09  -114.673306c  -3.11  -3.07
iter:  11 21:51:09  -114.673078c  -3.59  -3.48
iter:  12 21:51:10  -114.672980c  -3.92  -3.62
iter:  13 21:51:10  -114.673084c  -4.35  -4.08c
iter:  14 21:51:11  -114.673188c  -4.70  -4.19c
iter:  15 21:51:12  -114.673143c  -5.07  -4.46c
iter:  16 21:51:12  -114.673035c  -5.43  -4.73c
iter:  17 21:51:13  -114.673028c  -5.78  -4.95c
iter:  18 21:51:13  -114.673030c  -6.16  -5.27c
iter:  19 21:51:14  -114.673091c  -6.49  -5.61c
iter:  20 21:51:14  -114.673141c  -6.80  -5.77c
iter:  21 21:51:15  -114.673114c  -7.18  -5.91c
iter:  22 21:51:15  -114.673124c  -7.50c -6.00c

Converged after 22 iterations.

Dipole moment: (5.856049, 7.221106, 7.971601) |e|*Ang

Energy contributions relative to reference atoms: (reference = -14908.172909)

Kinetic:       +118.633060
Potential:     -134.830297
External:        -0.005681
XC:            -102.530918
Entropy (-ST):   +0.000000
Local:           +3.848237
Interactions  
 surf:           +0.212475
--------------------------
Free energy:   -114.673124
Extrapolated:  -114.673124

Solvation cavity surface area: 185.01196
Solvation cavity volume: 196.43250
 Band  Eigenvalues  Occupancy
    0    -30.73970    2.00000
    1    -30.40564    2.00000
    2    -28.49836    2.00000
    3    -28.12940    2.00000
    4    -27.63029    2.00000
    5    -23.13534    2.00000
    6    -21.50890    2.00000
    7    -19.56900    2.00000
    8    -18.40062    2.00000
    9    -17.55383    2.00000
   10    -17.19809    2.00000
   11    -16.90070    2.00000
   12    -15.43893    2.00000
   13    -14.97287    2.00000
   14    -14.93604    2.00000
   15    -14.69978    2.00000
   16    -14.34256    2.00000
   17    -14.14429    2.00000
   18    -13.64963    2.00000
   19    -13.02551    2.00000
   20    -12.58305    2.00000
   21    -12.40435    2.00000
   22    -11.84564    2.00000
   23    -11.62260    2.00000
   24    -11.48055    2.00000
   25    -10.71142    2.00000
   26    -10.49000    2.00000
   27     -9.62690    2.00000
   28     -9.47270    2.00000
   29     -4.25588    0.00000
   30     -3.92180    0.00000
   31     -3.04798    0.00000
   32     -2.46358    0.00000
   33     -2.23051    0.00000
   34     -1.96263    0.00000
   35     -1.59530    0.00000
   36     -1.51087    0.00000
   37     -1.02417    0.00000
   38     -0.92750    0.00000

Fermi level: -6.86429

Gap: 5.217 eV
Transition (v -> c):
  (s=0, k=0, n=28, [0.00, 0.00, 0.00]) -> (s=0, k=0, n=29, [0.00, 0.00, 0.00])
Input parameters:
  external: {direction: [0. 0. 1.],
             name: ConstantElectricField,
             strength: 0.01349167030559062}

Initialize ...

species:
  N:
    name: Nitrogen
    id: f7500608b86eaa90eef8b1d9a670dc53
    Z: 7.0
    valence: 5
    core: 2
    charge: 0.0
    file: /home/fr/fr_fr/fr_ez1021/source/gpaw-setups/gpaw-setups-0.9.20000/N.PBE.gz
    compensation charges: {type: gauss,
                           rc: 0.18,
                           lmax: 2}
    cutoffs: {filter: 1.11,
              core: 0.96}
    valence states:
      #              energy  rcut
      - 2s(2.00)   -18.583   0.603
      - 2p(3.00)    -7.089   0.529
      -  s           8.629   0.603
      -  p          20.123   0.529
      -  d           0.000   0.577
  
    # Using partial waves for N as LCAO basis

  C:
    name: Carbon
    id: 4aa54d4b901d75f77cc0ea3eec22967b
    Z: 6.0
    valence: 4
    core: 2
    charge: 0.0
    file: /home/fr/fr_fr/fr_ez1021/source/gpaw-setups/gpaw-setups-0.9.20000/C.PBE.gz
    compensation charges: {type: gauss,
                           rc: 0.20,
                           lmax: 2}
    cutoffs: {filter: 1.14,
              core: 1.14}
    valence states:
      #              energy  rcut
      - 2s(2.00)   -13.751   0.635
      - 2p(2.00)    -5.284   0.635
      -  s          13.461   0.635
      -  p          21.927   0.635
      -  d           0.000   0.635
  
    # Using partial waves for C as LCAO basis

  O:
    name: Oxygen
    id: 32ecd46bf208036f09c70b0ec9a88b78
    Z: 8.0
    valence: 6
    core: 2
    charge: 0.0
    file: /home/fr/fr_fr/fr_ez1021/source/gpaw-setups/gpaw-setups-0.9.20000/O.PBE.gz
    compensation charges: {type: gauss,
                           rc: 0.21,
                           lmax: 2}
    cutoffs: {filter: 1.17,
              core: 0.83}
    valence states:
      #              energy  rcut
      - 2s(2.00)   -23.961   0.688
      - 2p(4.00)    -9.029   0.598
      -  s           3.251   0.688
      -  p          18.182   0.598
      -  d           0.000   0.619
  
    # Using partial waves for O as LCAO basis

  H:
    name: Hydrogen
    id: d65de229564ff8ea4db303e23b6d1ecf
    Z: 1.0
    valence: 1
    core: 0
    charge: 0.0
    file: /home/fr/fr_fr/fr_ez1021/source/gpaw-setups/gpaw-setups-0.9.20000/H.PBE.gz
    compensation charges: {type: gauss,
                           rc: 0.15,
                           lmax: 2}
    cutoffs: {filter: 0.85,
              core: 0.53}
    valence states:
      #              energy  rcut
      - 1s(1.00)    -6.494   0.476
      -  s          20.717   0.476
      -  p           0.000   0.476
  
    # Using partial waves for H as LCAO basis

Reference energy: -14908.172909  # eV

Spin-paired calculation

Convergence criteria:
 Maximum [total energy] change in last 3 cyles: 0.0005 eV / valence electron
 Maximum integral of absolute [dens]ity change: 0.0001 electrons / valence electron
 Maximum integral of absolute [eigenst]ate change: 4e-08 eV^2 / valence electron
 Maximum number of scf [iter]ations: 333
 (Square brackets indicate name in SCF output, whereas a 'c' in
 the SCF output indicates the quantity has converged.)

Symmetries present (total): 1

  ( 1  0  0)
  ( 0  1  0)
  ( 0  0  1)

1 k-point (Gamma)
1 k-point in the irreducible part of the Brillouin zone
       k-points in crystal coordinates                weights
   0:     0.00000000    0.00000000    0.00000000          1/1

Wave functions: Uniform real-space grid
  Kinetic energy operator: 6*3+1=19 point O(h^6) finite-difference Laplacian
  ScaLapack parameters: grid=1x1, blocksize=None
  Wavefunction extrapolation:
    Improved wavefunction reuse through dual PAW basis 

Occupation numbers: # Zero width 

Eigensolver
   Davidson(niter=2) 

Densities:
  Coarse grid: 64*68*72 grid
  Fine grid: 128*136*144 grid
  Total Charge: 1.000000 

Density mixing:
  Method: separate
  Backend: pulay
  Linear mixing parameter: 0.25
  old densities: 3
  Damping of long wavelength oscillations: 1  # (no daming) 

Hamiltonian:
  XC and Coulomb potentials evaluated on a 128*136*144 grid
  Using the PBE Exchange-Correlation functional
  External potential:
    Constant electric field: (0.000, 0.000, 0.013) V/Ang
  Interpolation: tri-quintic (5. degree polynomial)
  Poisson solver: Jacobi weighted FD solver with dielectric and 4 multi-grid levels
    Coarsest grid: 16 x 17 x 18 points
    Stencil: Weighted Finite Difference Operator
      6*3+1=19 point O(h^6) finite-difference Laplacian
      Finite-difference x-derivative with O(h^6) error (6 points)
      Finite-difference y-derivative with O(h^6) error (6 points)
      Finite-difference z-derivative with O(h^6) error (6 points)
    Max iterations: 1000
    Tolerance: 2.000000e-10

  Solvation:
    Cavity:  EffectivePotentialCavity
      Surface Calculator: GradientSurface with 3 nn
      Volume Calculator: KB51Volume
        compressibility: 72.57860092224
        temperature:     298.15
      EffectivePotentialCavity
        Potential: Power12Potential
          u0: 0.18eV
          pbc_cutoff: 1e-06
          tiny: 1e-10
        temperature: 298.15K    Dielectric:
      Type: LinearDielectric
      Solvent dielectric constant: 1.77    Interaction: SurfaceInteraction
      subscript: surf
      Surface_tension: 0.0011484376791625194 eV/(Angstrom^2)
XC parameters: PBE with 2 nearest neighbor stencil

Memory estimate:
  Process memory now: 305.17 MiB
  Calculator: 51.79 MiB
    Density: 5.00 MiB
      Arrays: 3.65 MiB
      Localized functions: 0.56 MiB
      Mixer: 0.80 MiB
    Hamiltonian: 35.59 MiB
      Arrays: 2.39 MiB
      XC: 0.00 MiB
      Poisson: 2.73 MiB
      vbar: 0.04 MiB
      Solvation: 30.43 MiB
    Wavefunctions: 11.19 MiB
      Arrays psit_nG: 5.17 MiB
      Eigensolver: 5.96 MiB
      Projections: 0.00 MiB
      Projectors: 0.06 MiB

Total number of cores used: 16
Domain decomposition: 2 x 2 x 4

Number of atoms: 20
Number of atomic orbitals: 50
Number of bands in calculation: 39
Number of valence electrons: 58
Bands to converge: occupied

... initialized

Initializing position-dependent things.

Solvation position-dependent initialization:
  Atomic radii for Power12Potential:
    Type    Radius   No. of atoms
       H     1.090     10
       O     1.520     4
       N     1.550     1
       C     1.700     5

Density initialized from atomic densities
Creating initial wave functions:
  39 bands from LCAO basis set

         .------------------------------.  
        /|                              |  
       / |                              |  
      /  |                              |  
     /   |                              |  
    /    |                              |  
   /     |                              |  
  /      |                              |  
 *       |                              |  
 |       |          H                   |  
 |       |             O  H             |  
 |       |       H HC   C O             |  
 |       |     H C  N  H                |  
 |       |        CHH                   |  
 |       |      H                       |  
 |       |       CO                     |  
 |       |                              |  
 |       |       O                      |  
 |       .-------H----------------------.  
 |      /                              /   
 |     /                              /    
 |    /                              /     
 |   /                              /      
 |  /                              /       
 | /                              /        
 |/                              /         
 *------------------------------*          

Positions:
   0 N      5.985838    8.496373    7.501117    ( 0.0000,  0.0000,  0.0000)
   1 C      6.066610    7.579116    8.675106    ( 0.0000,  0.0000,  0.0000)
   2 C      7.537351    7.257345    8.917785    ( 0.0000,  0.0000,  0.0000)
   3 O      8.455106    7.789255    8.312723    ( 0.0000,  0.0000,  0.0000)
   4 H      5.310221    9.252525    7.657111    ( 0.0000,  0.0000,  0.0000)
   5 H      5.687373    7.962170    6.647894    ( 0.0000,  0.0000,  0.0000)
   6 H      5.726154    8.146186    9.553318    ( 0.0000,  0.0000,  0.0000)
   7 C      5.150077    6.360539    8.514542    ( 0.0000,  0.0000,  0.0000)
   8 C      5.594126    5.268202    7.537964    ( 0.0000,  0.0000,  0.0000)
   9 C      5.435105    5.563157    6.068980    ( 0.0000,  0.0000,  0.0000)
  10 O      5.216217    6.668391    5.571457    ( 0.0000,  0.0000,  0.0000)
  11 O      5.573043    4.461447    5.318620    ( 0.0000,  0.0000,  0.0000)
  12 H      4.151550    6.730814    8.241193    ( 0.0000,  0.0000,  0.0000)
  13 H      5.055792    5.908513    9.509574    ( 0.0000,  0.0000,  0.0000)
  14 H      5.031390    4.347475    7.746313    ( 0.0000,  0.0000,  0.0000)
  15 H      6.649446    4.988739    7.690426    ( 0.0000,  0.0000,  0.0000)
  16 O      7.688504    6.354274    9.889213    ( 0.0000,  0.0000,  0.0000)
  17 H      6.907500    8.922776    7.322518    ( 0.0000,  0.0000,  0.0000)
  18 H      5.497056    4.714388    4.372389    ( 0.0000,  0.0000,  0.0000)
  19 H      8.648450    6.199729   10.027611    ( 0.0000,  0.0000,  0.0000)

Unit cell:
           periodic     x           y           z      points  spacing
  1. axis:    no    12.800000    0.000000    0.000000    64     0.2000
  2. axis:    no     0.000000   13.600000    0.000000    68     0.2000
  3. axis:    no     0.000000    0.000000   14.400000    72     0.2000

  Lengths:  12.800000  13.600000  14.400000
  Angles:   90.000000  90.000000  90.000000

Effective grid spacing dv^(1/3) = 0.2000

     iter     time        total  log10-change:
                         energy   eigst   dens
iter:   1 21:51:19  -126.380463
iter:   2 21:51:21  -117.501585   +0.67  -0.70
iter:   3 21:51:22  -114.973103   +0.67  -0.92
iter:   4 21:51:24  -114.692973   -0.18  -1.20
iter:   5 21:51:25  -114.681808   -0.63  -1.52
iter:   6 21:51:26  -114.678073c  -1.09  -2.14
iter:   7 21:51:27  -114.678280c  -1.78  -2.42
iter:   8 21:51:28  -114.678042c  -2.30  -2.57
iter:   9 21:51:28  -114.678596c  -2.57  -2.85
iter:  10 21:51:29  -114.678205c  -3.11  -3.07
iter:  11 21:51:30  -114.677971c  -3.59  -3.49
iter:  12 21:51:30  -114.677868c  -3.92  -3.63
iter:  13 21:51:31  -114.677975c  -4.35  -4.09c
iter:  14 21:51:32  -114.678072c  -4.70  -4.20c
iter:  15 21:51:32  -114.678044c  -5.07  -4.45c
iter:  16 21:51:33  -114.677938c  -5.43  -4.74c
iter:  17 21:51:33  -114.677910c  -5.77  -4.93c
iter:  18 21:51:34  -114.677924c  -6.15  -5.30c
iter:  19 21:51:34  -114.677976c  -6.47  -5.54c
iter:  20 21:51:35  -114.678020c  -6.79  -5.77c
iter:  21 21:51:35  -114.678031c  -7.10  -5.83c
iter:  22 21:51:36  -114.678009c  -7.47c -5.97c

Converged after 22 iterations.

Dipole moment: (5.856538, 7.207797, 7.984817) |e|*Ang

Energy contributions relative to reference atoms: (reference = -14908.172909)

Kinetic:       +118.633792
Potential:     -134.830572
External:        -0.010588
XC:            -102.531389
Entropy (-ST):   +0.000000
Local:           +3.848274
Interactions  
 surf:           +0.212475
--------------------------
Free energy:   -114.678009
Extrapolated:  -114.678009

Solvation cavity surface area: 185.01196
Solvation cavity volume: 196.43250
 Band  Eigenvalues  Occupancy
    0    -30.71883    2.00000
    1    -30.40495    2.00000
    2    -28.48491    2.00000
    3    -28.12967    2.00000
    4    -27.63284    2.00000
    5    -23.12191    2.00000
    6    -21.49680    2.00000
    7    -19.55538    2.00000
    8    -18.38694    2.00000
    9    -17.55063    2.00000
   10    -17.19997    2.00000
   11    -16.89839    2.00000
   12    -15.43113    2.00000
   13    -14.96256    2.00000
   14    -14.92899    2.00000
   15    -14.68920    2.00000
   16    -14.33033    2.00000
   17    -14.13824    2.00000
   18    -13.63902    2.00000
   19    -13.01019    2.00000
   20    -12.57343    2.00000
   21    -12.38780    2.00000
   22    -11.83020    2.00000
   23    -11.61024    2.00000
   24    -11.46465    2.00000
   25    -10.69243    2.00000
   26    -10.49029    2.00000
   27     -9.61586    2.00000
   28     -9.47311    2.00000
   29     -4.24180    0.00000
   30     -3.91786    0.00000
   31     -3.05862    0.00000
   32     -2.43757    0.00000
   33     -2.23199    0.00000
   34     -1.96305    0.00000
   35     -1.57204    0.00000
   36     -1.50630    0.00000
   37     -1.01253    0.00000
   38     -0.90828    0.00000

Fermi level: -6.85745

Gap: 5.231 eV
Transition (v -> c):
  (s=0, k=0, n=28, [0.00, 0.00, 0.00]) -> (s=0, k=0, n=29, [0.00, 0.00, 0.00])
Input parameters:
  external: None

Timing:                              incl.     excl.
-----------------------------------------------------------
Hamiltonian:                        79.811    11.553   2.0% ||
 Atomic:                             0.963     0.015   0.0% |
  XC Correction:                     0.947     0.947   0.2% |
 Hartree integrate/restrict:         0.098     0.098   0.0% |
 Initialize Hamiltonian:             1.062     1.062   0.2% |
 Poisson:                           64.888    64.888  11.3% |----|
 XC 3D grid:                         1.214     1.214   0.2% |
 vbar:                               0.034     0.034   0.0% |
LCAO initialization:                 8.107     5.982   1.0% |
 LCAO eigensolver:                   0.724     0.002   0.0% |
  Calculate projections:             0.000     0.000   0.0% |
  DenseAtomicCorrection:             0.001     0.001   0.0% |
  Distribute overlap matrix:         0.656     0.656   0.1% |
  Orbital Layouts:                   0.022     0.022   0.0% |
  Potential matrix:                  0.042     0.042   0.0% |
 LCAO to grid:                       0.301     0.301   0.1% |
 Set positions (LCAO WFS):           1.100     0.839   0.1% |
  Basic WFS set positions:           0.020     0.020   0.0% |
  Basis functions set positions:     0.003     0.003   0.0% |
  P tci:                             0.008     0.008   0.0% |
  ST tci:                            0.079     0.079   0.0% |
  mktci:                             0.152     0.152   0.0% |
SCF-cycle:                         480.201     0.510   0.1% |
 Davidson:                         142.947    50.989   8.9% |---|
  Apply hamiltonian:                12.552    12.552   2.2% ||
  Subspace diag:                    20.602     0.085   0.0% |
   calc_h_matrix:                   14.073     1.958   0.3% |
    Apply hamiltonian:              12.116    12.116   2.1% ||
   diagonalize:                      0.847     0.847   0.1% |
   rotate_psi:                       5.597     5.597   1.0% |
  calc. matrices:                   46.193    17.117   3.0% ||
   Apply hamiltonian:               29.076    29.076   5.1% |-|
  diagonalize:                       1.397     1.397   0.2% |
  rotate_psi:                       11.214    11.214   2.0% ||
 Density:                            4.522     0.013   0.0% |
  Atomic density matrices:           0.845     0.845   0.1% |
  Mix:                               2.810     2.810   0.5% |
  Multipole moments:                 0.109     0.109   0.0% |
  Pseudo density:                    0.744     0.734   0.1% |
   Symmetrize density:               0.010     0.010   0.0% |
 Hamiltonian:                      330.528    13.109   2.3% ||
  Atomic:                           20.035     0.355   0.1% |
   XC Correction:                   19.680    19.680   3.4% ||
  Hartree integrate/restrict:        1.861     1.861   0.3% |
  Poisson:                         268.897   268.897  46.8% |------------------|
  XC 3D grid:                       26.265    26.265   4.6% |-|
  vbar:                              0.360     0.360   0.1% |
 Orthonormalize:                     1.694     0.004   0.0% |
  calc_s_matrix:                     0.069     0.069   0.0% |
  inverse-cholesky:                  1.466     1.466   0.3% |
  projections:                       0.001     0.001   0.0% |
  rotate_psi_s:                      0.154     0.154   0.0% |
Set symmetry:                        0.025     0.025   0.0% |
Other:                               6.774     6.774   1.2% |
-----------------------------------------------------------
Total:                                       574.918 100.0%

Memory usage: 305.17 MiB
Date: Fri Oct  6 21:51:36 2023
