
  ___ ___ ___ _ _ _  
 |   |   |_  | | | | 
 | | | | | . | | | | 
 |__ |  _|___|_____|  23.9.2b1
 |___|_|             

User:   fr_ez1021@n1425
Date:   Fri Oct  6 21:48:49 2023
Arch:   x86_64
Pid:    4030526
CWD:    /lustre/home/fr/fr_fr/fr_ez1021/sims/amino_acids_publish/scripts
Python: 3.8.3
gpaw:   /home/fr/fr_fr/fr_ez1021/source/origin/gpaw/gpaw (68657f1768)
_gpaw:  /home/fr/fr_fr/fr_ez1021/source/origin/gpaw/build/lib.linux-x86_64-3.8/
        _gpaw.cpython-38-x86_64-linux-gnu.so (d6c5f22bb1)
ase:    /home/fr/fr_fr/fr_ez1021/source/origin/ase/ase (version 3.23.0b1-4bd916e410)
numpy:  /opt/bwhpc/common/numlib/python_numpy/1.19.0_python-3.8.3/lib/python3.8/site-packages/numpy-1.19.0-py3.8-linux-x86_64.egg/numpy (version 1.19.0)
scipy:  /opt/bwhpc/common/numlib/python_scipy/1.5.0_numpy-1.19.0_python-3.8.3/lib/python3.8/site-packages/scipy-1.5.0-py3.8-linux-x86_64.egg/scipy (version 1.5.0)
libxc:  5.1.7
units:  Angstrom and eV
cores: 16
OpenMP: False
OMP_NUM_THREADS: 1

Input parameters:
  mode: fd
  xc: PBE

Implicit solvation parameters:
Cavity:  EffectivePotentialCavity
  Surface Calculator: GradientSurface with 3 nn
  Volume Calculator: KB51Volume
    compressibility: 72.57860092224
    temperature:     298.15
  EffectivePotentialCavity
    Potential: Power12Potential
      u0: 0.18eV
      pbc_cutoff: 1e-06
      tiny: 1e-10
    temperature: 298.15K
Dielectric:
  Type: LinearDielectric
  Solvent dielectric constant: 1.77
Interaction: SurfaceInteraction
  subscript: surf
  Surface_tension: 0.0011484376791625194 eV/(Angstrom^2)

System changes: positions, numbers, cell, pbc, initial_charges, initial_magmoms 

Initialize ...

species:
  N:
    name: Nitrogen
    id: f7500608b86eaa90eef8b1d9a670dc53
    Z: 7.0
    valence: 5
    core: 2
    charge: 0.0
    file: /home/fr/fr_fr/fr_ez1021/source/gpaw-setups/gpaw-setups-0.9.20000/N.PBE.gz
    compensation charges: {type: gauss,
                           rc: 0.18,
                           lmax: 2}
    cutoffs: {filter: 1.11,
              core: 0.96}
    valence states:
      #              energy  rcut
      - 2s(2.00)   -18.583   0.603
      - 2p(3.00)    -7.089   0.529
      -  s           8.629   0.603
      -  p          20.123   0.529
      -  d           0.000   0.577
  
    # Using partial waves for N as LCAO basis

  C:
    name: Carbon
    id: 4aa54d4b901d75f77cc0ea3eec22967b
    Z: 6.0
    valence: 4
    core: 2
    charge: 0.0
    file: /home/fr/fr_fr/fr_ez1021/source/gpaw-setups/gpaw-setups-0.9.20000/C.PBE.gz
    compensation charges: {type: gauss,
                           rc: 0.20,
                           lmax: 2}
    cutoffs: {filter: 1.14,
              core: 1.14}
    valence states:
      #              energy  rcut
      - 2s(2.00)   -13.751   0.635
      - 2p(2.00)    -5.284   0.635
      -  s          13.461   0.635
      -  p          21.927   0.635
      -  d           0.000   0.635
  
    # Using partial waves for C as LCAO basis

  O:
    name: Oxygen
    id: 32ecd46bf208036f09c70b0ec9a88b78
    Z: 8.0
    valence: 6
    core: 2
    charge: 0.0
    file: /home/fr/fr_fr/fr_ez1021/source/gpaw-setups/gpaw-setups-0.9.20000/O.PBE.gz
    compensation charges: {type: gauss,
                           rc: 0.21,
                           lmax: 2}
    cutoffs: {filter: 1.17,
              core: 0.83}
    valence states:
      #              energy  rcut
      - 2s(2.00)   -23.961   0.688
      - 2p(4.00)    -9.029   0.598
      -  s           3.251   0.688
      -  p          18.182   0.598
      -  d           0.000   0.619
  
    # Using partial waves for O as LCAO basis

  H:
    name: Hydrogen
    id: d65de229564ff8ea4db303e23b6d1ecf
    Z: 1.0
    valence: 1
    core: 0
    charge: 0.0
    file: /home/fr/fr_fr/fr_ez1021/source/gpaw-setups/gpaw-setups-0.9.20000/H.PBE.gz
    compensation charges: {type: gauss,
                           rc: 0.15,
                           lmax: 2}
    cutoffs: {filter: 0.85,
              core: 0.53}
    valence states:
      #              energy  rcut
      - 1s(1.00)    -6.494   0.476
      -  s          20.717   0.476
      -  p           0.000   0.476
  
    # Using partial waves for H as LCAO basis

Reference energy: -14805.049268  # eV

Spin-paired calculation

Convergence criteria:
 Maximum [total energy] change in last 3 cyles: 0.0005 eV / valence electron
 Maximum integral of absolute [dens]ity change: 0.0001 electrons / valence electron
 Maximum integral of absolute [eigenst]ate change: 4e-08 eV^2 / valence electron
 Maximum number of scf [iter]ations: 333
 (Square brackets indicate name in SCF output, whereas a 'c' in
 the SCF output indicates the quantity has converged.)

Symmetries present (total): 1

  ( 1  0  0)
  ( 0  1  0)
  ( 0  0  1)

1 k-point (Gamma)
1 k-point in the irreducible part of the Brillouin zone
       k-points in crystal coordinates                weights
   0:     0.00000000    0.00000000    0.00000000          1/1

Wave functions: Uniform real-space grid
  Kinetic energy operator: 6*3+1=19 point O(h^6) finite-difference Laplacian
  ScaLapack parameters: grid=1x1, blocksize=None
  Wavefunction extrapolation:
    Improved wavefunction reuse through dual PAW basis 

Occupation numbers: # Zero width 

Eigensolver
   Davidson(niter=2) 

Densities:
  Coarse grid: 80*60*60 grid
  Fine grid: 160*120*120 grid
  Total Charge: 0.000000 

Density mixing:
  Method: separate
  Backend: pulay
  Linear mixing parameter: 0.25
  old densities: 3
  Damping of long wavelength oscillations: 1  # (no daming) 

Hamiltonian:
  XC and Coulomb potentials evaluated on a 160*120*120 grid
  Using the PBE Exchange-Correlation functional
  Interpolation: tri-quintic (5. degree polynomial)
  Poisson solver: Jacobi weighted FD solver with dielectric and 4 multi-grid levels
    Coarsest grid: 20 x 15 x 15 points
    Stencil: Weighted Finite Difference Operator
      6*3+1=19 point O(h^6) finite-difference Laplacian
      Finite-difference x-derivative with O(h^6) error (6 points)
      Finite-difference y-derivative with O(h^6) error (6 points)
      Finite-difference z-derivative with O(h^6) error (6 points)
    Max iterations: 1000
    Tolerance: 2.000000e-10

  Solvation:
    Cavity:  EffectivePotentialCavity
      Surface Calculator: GradientSurface with 3 nn
      Volume Calculator: KB51Volume
        compressibility: 72.57860092224
        temperature:     298.15
      EffectivePotentialCavity
        Potential: Power12Potential
          u0: 0.18eV
          pbc_cutoff: 1e-06
          tiny: 1e-10
        temperature: 298.15K    Dielectric:
      Type: LinearDielectric
      Solvent dielectric constant: 1.77    Interaction: SurfaceInteraction
      subscript: surf
      Surface_tension: 0.0011484376791625194 eV/(Angstrom^2)
XC parameters: PBE with 2 nearest neighbor stencil

Memory estimate:
  Process memory now: 167.05 MiB
  Calculator: 47.89 MiB
    Density: 4.64 MiB
      Arrays: 3.35 MiB
      Localized functions: 0.55 MiB
      Mixer: 0.73 MiB
    Hamiltonian: 32.71 MiB
      Arrays: 2.19 MiB
      XC: 0.00 MiB
      Poisson: 2.51 MiB
      vbar: 0.04 MiB
      Solvation: 27.97 MiB
    Wavefunctions: 10.55 MiB
      Arrays psit_nG: 4.88 MiB
      Eigensolver: 5.61 MiB
      Projections: 0.00 MiB
      Projectors: 0.06 MiB

Total number of cores used: 16
Domain decomposition: 4 x 2 x 2

Number of atoms: 20
Number of atomic orbitals: 53
Number of bands in calculation: 40
Number of valence electrons: 60
Bands to converge: occupied

... initialized

Initializing position-dependent things.

Solvation position-dependent initialization:
  Atomic radii for Power12Potential:
    Type    Radius   No. of atoms
       H     1.090     9
       O     1.520     2
       N     1.550     3
       C     1.700     6

Density initialized from atomic densities
Creating initial wave functions:
  40 bands from LCAO basis set

        .--------------------------------------.  
       /|                                      |  
      / |                                      |  
     /  |                                      |  
    /   |                                      |  
   /    |                                      |  
  /     |                                      |  
 *      |                                      |  
 |      |            H                         |  
 |      |       H           H                  |  
 |      |        C  N    H  C   O              |  
 |      |             C  C   H C               |  
 |      |        N       HH N   O              |  
 |      |           C        H                 |  
 |      |            H                         |  
 |      .--------------------------------------.  
 |     /                                      /   
 |    /                                      /    
 |   /                                      /     
 |  /                                      /      
 | /                                      /       
 |/                                      /        
 *--------------------------------------*         

Positions:
   0 N      9.478488    6.807768    5.022263    ( 0.0000,  0.0000,  0.0000)
   1 C      9.607925    6.133374    6.348833    ( 0.0000,  0.0000,  0.0000)
   2 C     11.027853    5.502746    6.419918    ( 0.0000,  0.0000,  0.0000)
   3 O     11.630870    5.359498    5.315263    ( 0.0000,  0.0000,  0.0000)
   4 H      9.750950    7.795747    5.065413    ( 0.0000,  0.0000,  0.0000)
   5 H      8.517581    6.760338    4.650161    ( 0.0000,  0.0000,  0.0000)
   6 H      9.502887    6.898236    7.125477    ( 0.0000,  0.0000,  0.0000)
   7 C      8.511164    5.049828    6.502018    ( 0.0000,  0.0000,  0.0000)
   8 C      7.143139    5.533343    6.150784    ( 0.0000,  0.0000,  0.0000)
   9 N      6.297404    6.202329    7.014359    ( 0.0000,  0.0000,  0.0000)
  10 C      6.473934    5.537899    4.938606    ( 0.0000,  0.0000,  0.0000)
  11 C      5.190189    6.571534    6.318070    ( 0.0000,  0.0000,  0.0000)
  12 N      5.263151    6.192930    5.046507    ( 0.0000,  0.0000,  0.0000)
  13 H      8.550331    4.681011    7.535308    ( 0.0000,  0.0000,  0.0000)
  14 H      8.756824    4.204253    5.843235    ( 0.0000,  0.0000,  0.0000)
  15 H      6.800548    5.091833    4.002464    ( 0.0000,  0.0000,  0.0000)
  16 H      4.369130    7.114206    6.776620    ( 0.0000,  0.0000,  0.0000)
  17 H      6.475496    6.393583    7.997536    ( 0.0000,  0.0000,  0.0000)
  18 O     11.433889    5.177183    7.566117    ( 0.0000,  0.0000,  0.0000)
  19 H     10.139909    6.326017    4.382698    ( 0.0000,  0.0000,  0.0000)

Unit cell:
           periodic     x           y           z      points  spacing
  1. axis:    no    16.000000    0.000000    0.000000    80     0.2000
  2. axis:    no     0.000000   12.000000    0.000000    60     0.2000
  3. axis:    no     0.000000    0.000000   12.000000    60     0.2000

  Lengths:  16.000000  12.000000  12.000000
  Angles:   90.000000  90.000000  90.000000

Effective grid spacing dv^(1/3) = 0.2000

     iter     time        total  log10-change:
                         energy   eigst   dens
iter:   1 21:48:52  -136.013177
iter:   2 21:48:53  -128.916927   +0.55  -0.74
iter:   3 21:48:54  -126.591302   +0.55  -0.93
iter:   4 21:48:55  -126.361085   -0.17  -1.20
iter:   5 21:48:56  -126.362139   -0.67  -1.54
iter:   6 21:48:57  -126.356677c  -1.16  -2.06
iter:   7 21:48:58  -126.355463c  -1.86  -2.41
iter:   8 21:48:58  -126.354607c  -2.28  -2.58
iter:   9 21:48:59  -126.354758c  -2.56  -2.87
iter:  10 21:48:59  -126.354436c  -3.05  -3.05
iter:  11 21:49:00  -126.354594c  -3.45  -3.53
iter:  12 21:49:01  -126.354703c  -3.81  -3.68
iter:  13 21:49:01  -126.354746c  -4.11  -3.96
iter:  14 21:49:01  -126.354791c  -4.47  -4.16c
iter:  15 21:49:02  -126.354638c  -4.83  -4.63c
iter:  16 21:49:02  -126.354456c  -5.07  -4.86c
iter:  17 21:49:03  -126.354746c  -5.32  -4.99c
iter:  18 21:49:03  -126.354756c  -5.63  -5.24c
iter:  19 21:49:03  -126.354813c  -5.88  -5.29c
iter:  20 21:49:04  -126.354857c  -6.16  -5.44c
iter:  21 21:49:04  -126.354788c  -6.49  -5.88c
iter:  22 21:49:05  -126.354777c  -6.76  -5.91c
iter:  23 21:49:05  -126.354778c  -7.00  -6.13c
iter:  24 21:49:05  -126.354781c  -7.26  -6.29c
iter:  25 21:49:06  -126.354783c  -7.54c -6.59c

Converged after 25 iterations.

Dipole moment: (-1.547298, 1.178364, -0.156409) |e|*Ang

Energy contributions relative to reference atoms: (reference = -14805.049268)

Kinetic:       +125.605834
Potential:     -139.028798
External:        +0.000000
XC:            -116.924253
Entropy (-ST):   +0.000000
Local:           +3.765489
Interactions  
 surf:           +0.226946
--------------------------
Free energy:   -126.354783
Extrapolated:  -126.354783

Solvation cavity surface area: 197.61247
Solvation cavity volume: 210.02125
 Band  Eigenvalues  Occupancy
    0    -25.98068    2.00000
    1    -25.78714    2.00000
    2    -24.98569    2.00000
    3    -23.07839    2.00000
    4    -22.16482    2.00000
    5    -20.37019    2.00000
    6    -18.69510    2.00000
    7    -16.78960    2.00000
    8    -15.69923    2.00000
    9    -15.32773    2.00000
   10    -14.92286    2.00000
   11    -14.72923    2.00000
   12    -13.80855    2.00000
   13    -12.96025    2.00000
   14    -12.22375    2.00000
   15    -11.49562    2.00000
   16    -11.25688    2.00000
   17    -10.93930    2.00000
   18    -10.44755    2.00000
   19    -10.32721    2.00000
   20    -10.10096    2.00000
   21     -9.61130    2.00000
   22     -9.27875    2.00000
   23     -8.84097    2.00000
   24     -7.53448    2.00000
   25     -6.81390    2.00000
   26     -6.28287    2.00000
   27     -5.79057    2.00000
   28     -5.63472    2.00000
   29     -5.10225    2.00000
   30     -1.32110    0.00000
   31     -1.13684    0.00000
   32     -0.69744    0.00000
   33     -0.41649    0.00000
   34     -0.27014    0.00000
   35      0.03132    0.00000
   36      0.24007    0.00000
   37      0.51093    0.00000
   38      0.60517    0.00000
   39      1.03816    0.00000

Fermi level: -3.21167

Gap: 3.781 eV
Transition (v -> c):
  (s=0, k=0, n=29, [0.00, 0.00, 0.00]) -> (s=0, k=0, n=30, [0.00, 0.00, 0.00])
Input parameters:
  external: {direction: [1. 0. 0.],
             name: ConstantElectricField,
             strength: 0.01}

Initialize ...

species:
  N:
    name: Nitrogen
    id: f7500608b86eaa90eef8b1d9a670dc53
    Z: 7.0
    valence: 5
    core: 2
    charge: 0.0
    file: /home/fr/fr_fr/fr_ez1021/source/gpaw-setups/gpaw-setups-0.9.20000/N.PBE.gz
    compensation charges: {type: gauss,
                           rc: 0.18,
                           lmax: 2}
    cutoffs: {filter: 1.11,
              core: 0.96}
    valence states:
      #              energy  rcut
      - 2s(2.00)   -18.583   0.603
      - 2p(3.00)    -7.089   0.529
      -  s           8.629   0.603
      -  p          20.123   0.529
      -  d           0.000   0.577
  
    # Using partial waves for N as LCAO basis

  C:
    name: Carbon
    id: 4aa54d4b901d75f77cc0ea3eec22967b
    Z: 6.0
    valence: 4
    core: 2
    charge: 0.0
    file: /home/fr/fr_fr/fr_ez1021/source/gpaw-setups/gpaw-setups-0.9.20000/C.PBE.gz
    compensation charges: {type: gauss,
                           rc: 0.20,
                           lmax: 2}
    cutoffs: {filter: 1.14,
              core: 1.14}
    valence states:
      #              energy  rcut
      - 2s(2.00)   -13.751   0.635
      - 2p(2.00)    -5.284   0.635
      -  s          13.461   0.635
      -  p          21.927   0.635
      -  d           0.000   0.635
  
    # Using partial waves for C as LCAO basis

  O:
    name: Oxygen
    id: 32ecd46bf208036f09c70b0ec9a88b78
    Z: 8.0
    valence: 6
    core: 2
    charge: 0.0
    file: /home/fr/fr_fr/fr_ez1021/source/gpaw-setups/gpaw-setups-0.9.20000/O.PBE.gz
    compensation charges: {type: gauss,
                           rc: 0.21,
                           lmax: 2}
    cutoffs: {filter: 1.17,
              core: 0.83}
    valence states:
      #              energy  rcut
      - 2s(2.00)   -23.961   0.688
      - 2p(4.00)    -9.029   0.598
      -  s           3.251   0.688
      -  p          18.182   0.598
      -  d           0.000   0.619
  
    # Using partial waves for O as LCAO basis

  H:
    name: Hydrogen
    id: d65de229564ff8ea4db303e23b6d1ecf
    Z: 1.0
    valence: 1
    core: 0
    charge: 0.0
    file: /home/fr/fr_fr/fr_ez1021/source/gpaw-setups/gpaw-setups-0.9.20000/H.PBE.gz
    compensation charges: {type: gauss,
                           rc: 0.15,
                           lmax: 2}
    cutoffs: {filter: 0.85,
              core: 0.53}
    valence states:
      #              energy  rcut
      - 1s(1.00)    -6.494   0.476
      -  s          20.717   0.476
      -  p           0.000   0.476
  
    # Using partial waves for H as LCAO basis

Reference energy: -14805.049268  # eV

Spin-paired calculation

Convergence criteria:
 Maximum [total energy] change in last 3 cyles: 0.0005 eV / valence electron
 Maximum integral of absolute [dens]ity change: 0.0001 electrons / valence electron
 Maximum integral of absolute [eigenst]ate change: 4e-08 eV^2 / valence electron
 Maximum number of scf [iter]ations: 333
 (Square brackets indicate name in SCF output, whereas a 'c' in
 the SCF output indicates the quantity has converged.)

Symmetries present (total): 1

  ( 1  0  0)
  ( 0  1  0)
  ( 0  0  1)

1 k-point (Gamma)
1 k-point in the irreducible part of the Brillouin zone
       k-points in crystal coordinates                weights
   0:     0.00000000    0.00000000    0.00000000          1/1

Wave functions: Uniform real-space grid
  Kinetic energy operator: 6*3+1=19 point O(h^6) finite-difference Laplacian
  ScaLapack parameters: grid=1x1, blocksize=None
  Wavefunction extrapolation:
    Improved wavefunction reuse through dual PAW basis 

Occupation numbers: # Zero width 

Eigensolver
   Davidson(niter=2) 

Densities:
  Coarse grid: 80*60*60 grid
  Fine grid: 160*120*120 grid
  Total Charge: 0.000000 

Density mixing:
  Method: separate
  Backend: pulay
  Linear mixing parameter: 0.25
  old densities: 3
  Damping of long wavelength oscillations: 1  # (no daming) 

Hamiltonian:
  XC and Coulomb potentials evaluated on a 160*120*120 grid
  Using the PBE Exchange-Correlation functional
  External potential:
    Constant electric field: (0.010, 0.000, 0.000) V/Ang
  Interpolation: tri-quintic (5. degree polynomial)
  Poisson solver: Jacobi weighted FD solver with dielectric and 4 multi-grid levels
    Coarsest grid: 20 x 15 x 15 points
    Stencil: Weighted Finite Difference Operator
      6*3+1=19 point O(h^6) finite-difference Laplacian
      Finite-difference x-derivative with O(h^6) error (6 points)
      Finite-difference y-derivative with O(h^6) error (6 points)
      Finite-difference z-derivative with O(h^6) error (6 points)
    Max iterations: 1000
    Tolerance: 2.000000e-10

  Solvation:
    Cavity:  EffectivePotentialCavity
      Surface Calculator: GradientSurface with 3 nn
      Volume Calculator: KB51Volume
        compressibility: 72.57860092224
        temperature:     298.15
      EffectivePotentialCavity
        Potential: Power12Potential
          u0: 0.18eV
          pbc_cutoff: 1e-06
          tiny: 1e-10
        temperature: 298.15K    Dielectric:
      Type: LinearDielectric
      Solvent dielectric constant: 1.77    Interaction: SurfaceInteraction
      subscript: surf
      Surface_tension: 0.0011484376791625194 eV/(Angstrom^2)
XC parameters: PBE with 2 nearest neighbor stencil

Memory estimate:
  Process memory now: 260.40 MiB
  Calculator: 47.89 MiB
    Density: 4.64 MiB
      Arrays: 3.35 MiB
      Localized functions: 0.55 MiB
      Mixer: 0.73 MiB
    Hamiltonian: 32.71 MiB
      Arrays: 2.19 MiB
      XC: 0.00 MiB
      Poisson: 2.51 MiB
      vbar: 0.04 MiB
      Solvation: 27.97 MiB
    Wavefunctions: 10.55 MiB
      Arrays psit_nG: 4.88 MiB
      Eigensolver: 5.61 MiB
      Projections: 0.00 MiB
      Projectors: 0.06 MiB

Total number of cores used: 16
Domain decomposition: 4 x 2 x 2

Number of atoms: 20
Number of atomic orbitals: 53
Number of bands in calculation: 40
Number of valence electrons: 60
Bands to converge: occupied

... initialized

Initializing position-dependent things.

Solvation position-dependent initialization:
  Atomic radii for Power12Potential:
    Type    Radius   No. of atoms
       H     1.090     9
       O     1.520     2
       N     1.550     3
       C     1.700     6

Density initialized from atomic densities
Creating initial wave functions:
  40 bands from LCAO basis set

        .--------------------------------------.  
       /|                                      |  
      / |                                      |  
     /  |                                      |  
    /   |                                      |  
   /    |                                      |  
  /     |                                      |  
 *      |                                      |  
 |      |            H                         |  
 |      |       H           H                  |  
 |      |        C  N    H  C   O              |  
 |      |             C  C   H C               |  
 |      |        N       HH N   O              |  
 |      |           C        H                 |  
 |      |            H                         |  
 |      .--------------------------------------.  
 |     /                                      /   
 |    /                                      /    
 |   /                                      /     
 |  /                                      /      
 | /                                      /       
 |/                                      /        
 *--------------------------------------*         

Positions:
   0 N      9.478488    6.807768    5.022263    ( 0.0000,  0.0000,  0.0000)
   1 C      9.607925    6.133374    6.348833    ( 0.0000,  0.0000,  0.0000)
   2 C     11.027853    5.502746    6.419918    ( 0.0000,  0.0000,  0.0000)
   3 O     11.630870    5.359498    5.315263    ( 0.0000,  0.0000,  0.0000)
   4 H      9.750950    7.795747    5.065413    ( 0.0000,  0.0000,  0.0000)
   5 H      8.517581    6.760338    4.650161    ( 0.0000,  0.0000,  0.0000)
   6 H      9.502887    6.898236    7.125477    ( 0.0000,  0.0000,  0.0000)
   7 C      8.511164    5.049828    6.502018    ( 0.0000,  0.0000,  0.0000)
   8 C      7.143139    5.533343    6.150784    ( 0.0000,  0.0000,  0.0000)
   9 N      6.297404    6.202329    7.014359    ( 0.0000,  0.0000,  0.0000)
  10 C      6.473934    5.537899    4.938606    ( 0.0000,  0.0000,  0.0000)
  11 C      5.190189    6.571534    6.318070    ( 0.0000,  0.0000,  0.0000)
  12 N      5.263151    6.192930    5.046507    ( 0.0000,  0.0000,  0.0000)
  13 H      8.550331    4.681011    7.535308    ( 0.0000,  0.0000,  0.0000)
  14 H      8.756824    4.204253    5.843235    ( 0.0000,  0.0000,  0.0000)
  15 H      6.800548    5.091833    4.002464    ( 0.0000,  0.0000,  0.0000)
  16 H      4.369130    7.114206    6.776620    ( 0.0000,  0.0000,  0.0000)
  17 H      6.475496    6.393583    7.997536    ( 0.0000,  0.0000,  0.0000)
  18 O     11.433889    5.177183    7.566117    ( 0.0000,  0.0000,  0.0000)
  19 H     10.139909    6.326017    4.382698    ( 0.0000,  0.0000,  0.0000)

Unit cell:
           periodic     x           y           z      points  spacing
  1. axis:    no    16.000000    0.000000    0.000000    80     0.2000
  2. axis:    no     0.000000   12.000000    0.000000    60     0.2000
  3. axis:    no     0.000000    0.000000   12.000000    60     0.2000

  Lengths:  16.000000  12.000000  12.000000
  Angles:   90.000000  90.000000  90.000000

Effective grid spacing dv^(1/3) = 0.2000

     iter     time        total  log10-change:
                         energy   eigst   dens
iter:   1 21:49:08  -135.995083
iter:   2 21:49:10  -128.900513   +0.55  -0.74
iter:   3 21:49:11  -126.575473   +0.55  -0.93
iter:   4 21:49:12  -126.345588   -0.17  -1.20
iter:   5 21:49:13  -126.346693   -0.67  -1.54
iter:   6 21:49:14  -126.341266c  -1.16  -2.06
iter:   7 21:49:15  -126.340061c  -1.86  -2.41
iter:   8 21:49:15  -126.339206c  -2.28  -2.58
iter:   9 21:49:16  -126.339363c  -2.56  -2.87
iter:  10 21:49:16  -126.339040c  -3.04  -3.05
iter:  11 21:49:17  -126.339200c  -3.45  -3.53
iter:  12 21:49:17  -126.339310c  -3.81  -3.68
iter:  13 21:49:18  -126.339354c  -4.11  -3.96
iter:  14 21:49:18  -126.339398c  -4.46  -4.16c
iter:  15 21:49:19  -126.339247c  -4.82  -4.63c
iter:  16 21:49:19  -126.339064c  -5.07  -4.87c
iter:  17 21:49:20  -126.339352c  -5.31  -5.00c
iter:  18 21:49:20  -126.339370c  -5.62  -5.24c
iter:  19 21:49:20  -126.339425c  -5.87  -5.28c
iter:  20 21:49:21  -126.339466c  -6.16  -5.42c
iter:  21 21:49:21  -126.339393c  -6.49  -5.87c
iter:  22 21:49:21  -126.339381c  -6.75  -5.91c
iter:  23 21:49:22  -126.339383c  -6.99  -6.19c
iter:  24 21:49:22  -126.339387c  -7.25  -6.29c
iter:  25 21:49:23  -126.339393c  -7.49c -6.42c

Converged after 25 iterations.

Dipole moment: (-1.531193, 1.176409, -0.155794) |e|*Ang

Energy contributions relative to reference atoms: (reference = -14805.049268)

Kinetic:       +125.606080
Potential:     -139.031306
External:        +0.015312
XC:            -116.921843
Entropy (-ST):   +0.000000
Local:           +3.765417
Interactions  
 surf:           +0.226946
--------------------------
Free energy:   -126.339393
Extrapolated:  -126.339393

Solvation cavity surface area: 197.61247
Solvation cavity volume: 210.02125
 Band  Eigenvalues  Occupancy
    0    -25.99156    2.00000
    1    -25.77223    2.00000
    2    -24.96536    2.00000
    3    -23.05252    2.00000
    4    -22.17970    2.00000
    5    -20.36968    2.00000
    6    -18.69725    2.00000
    7    -16.78681    2.00000
    8    -15.71290    2.00000
    9    -15.33532    2.00000
   10    -14.90966    2.00000
   11    -14.72316    2.00000
   12    -13.81376    2.00000
   13    -12.95181    2.00000
   14    -12.21440    2.00000
   15    -11.50444    2.00000
   16    -11.26394    2.00000
   17    -10.93399    2.00000
   18    -10.46038    2.00000
   19    -10.32679    2.00000
   20    -10.08763    2.00000
   21     -9.59931    2.00000
   22     -9.25363    2.00000
   23     -8.81938    2.00000
   24     -7.54949    2.00000
   25     -6.83262    2.00000
   26     -6.29205    2.00000
   27     -5.76355    2.00000
   28     -5.61201    2.00000
   29     -5.07614    2.00000
   30     -1.31428    0.00000
   31     -1.14685    0.00000
   32     -0.70609    0.00000
   33     -0.42179    0.00000
   34     -0.26777    0.00000
   35      0.03664    0.00000
   36      0.24120    0.00000
   37      0.50432    0.00000
   38      0.60190    0.00000
   39      1.04165    0.00000

Fermi level: -3.19521

Gap: 3.762 eV
Transition (v -> c):
  (s=0, k=0, n=29, [0.00, 0.00, 0.00]) -> (s=0, k=0, n=30, [0.00, 0.00, 0.00])
Input parameters:
  external: {direction: [0. 1. 0.],
             name: ConstantElectricField,
             strength: 0.01}

Initialize ...

species:
  N:
    name: Nitrogen
    id: f7500608b86eaa90eef8b1d9a670dc53
    Z: 7.0
    valence: 5
    core: 2
    charge: 0.0
    file: /home/fr/fr_fr/fr_ez1021/source/gpaw-setups/gpaw-setups-0.9.20000/N.PBE.gz
    compensation charges: {type: gauss,
                           rc: 0.18,
                           lmax: 2}
    cutoffs: {filter: 1.11,
              core: 0.96}
    valence states:
      #              energy  rcut
      - 2s(2.00)   -18.583   0.603
      - 2p(3.00)    -7.089   0.529
      -  s           8.629   0.603
      -  p          20.123   0.529
      -  d           0.000   0.577
  
    # Using partial waves for N as LCAO basis

  C:
    name: Carbon
    id: 4aa54d4b901d75f77cc0ea3eec22967b
    Z: 6.0
    valence: 4
    core: 2
    charge: 0.0
    file: /home/fr/fr_fr/fr_ez1021/source/gpaw-setups/gpaw-setups-0.9.20000/C.PBE.gz
    compensation charges: {type: gauss,
                           rc: 0.20,
                           lmax: 2}
    cutoffs: {filter: 1.14,
              core: 1.14}
    valence states:
      #              energy  rcut
      - 2s(2.00)   -13.751   0.635
      - 2p(2.00)    -5.284   0.635
      -  s          13.461   0.635
      -  p          21.927   0.635
      -  d           0.000   0.635
  
    # Using partial waves for C as LCAO basis

  O:
    name: Oxygen
    id: 32ecd46bf208036f09c70b0ec9a88b78
    Z: 8.0
    valence: 6
    core: 2
    charge: 0.0
    file: /home/fr/fr_fr/fr_ez1021/source/gpaw-setups/gpaw-setups-0.9.20000/O.PBE.gz
    compensation charges: {type: gauss,
                           rc: 0.21,
                           lmax: 2}
    cutoffs: {filter: 1.17,
              core: 0.83}
    valence states:
      #              energy  rcut
      - 2s(2.00)   -23.961   0.688
      - 2p(4.00)    -9.029   0.598
      -  s           3.251   0.688
      -  p          18.182   0.598
      -  d           0.000   0.619
  
    # Using partial waves for O as LCAO basis

  H:
    name: Hydrogen
    id: d65de229564ff8ea4db303e23b6d1ecf
    Z: 1.0
    valence: 1
    core: 0
    charge: 0.0
    file: /home/fr/fr_fr/fr_ez1021/source/gpaw-setups/gpaw-setups-0.9.20000/H.PBE.gz
    compensation charges: {type: gauss,
                           rc: 0.15,
                           lmax: 2}
    cutoffs: {filter: 0.85,
              core: 0.53}
    valence states:
      #              energy  rcut
      - 1s(1.00)    -6.494   0.476
      -  s          20.717   0.476
      -  p           0.000   0.476
  
    # Using partial waves for H as LCAO basis

Reference energy: -14805.049268  # eV

Spin-paired calculation

Convergence criteria:
 Maximum [total energy] change in last 3 cyles: 0.0005 eV / valence electron
 Maximum integral of absolute [dens]ity change: 0.0001 electrons / valence electron
 Maximum integral of absolute [eigenst]ate change: 4e-08 eV^2 / valence electron
 Maximum number of scf [iter]ations: 333
 (Square brackets indicate name in SCF output, whereas a 'c' in
 the SCF output indicates the quantity has converged.)

Symmetries present (total): 1

  ( 1  0  0)
  ( 0  1  0)
  ( 0  0  1)

1 k-point (Gamma)
1 k-point in the irreducible part of the Brillouin zone
       k-points in crystal coordinates                weights
   0:     0.00000000    0.00000000    0.00000000          1/1

Wave functions: Uniform real-space grid
  Kinetic energy operator: 6*3+1=19 point O(h^6) finite-difference Laplacian
  ScaLapack parameters: grid=1x1, blocksize=None
  Wavefunction extrapolation:
    Improved wavefunction reuse through dual PAW basis 

Occupation numbers: # Zero width 

Eigensolver
   Davidson(niter=2) 

Densities:
  Coarse grid: 80*60*60 grid
  Fine grid: 160*120*120 grid
  Total Charge: 0.000000 

Density mixing:
  Method: separate
  Backend: pulay
  Linear mixing parameter: 0.25
  old densities: 3
  Damping of long wavelength oscillations: 1  # (no daming) 

Hamiltonian:
  XC and Coulomb potentials evaluated on a 160*120*120 grid
  Using the PBE Exchange-Correlation functional
  External potential:
    Constant electric field: (0.000, 0.010, 0.000) V/Ang
  Interpolation: tri-quintic (5. degree polynomial)
  Poisson solver: Jacobi weighted FD solver with dielectric and 4 multi-grid levels
    Coarsest grid: 20 x 15 x 15 points
    Stencil: Weighted Finite Difference Operator
      6*3+1=19 point O(h^6) finite-difference Laplacian
      Finite-difference x-derivative with O(h^6) error (6 points)
      Finite-difference y-derivative with O(h^6) error (6 points)
      Finite-difference z-derivative with O(h^6) error (6 points)
    Max iterations: 1000
    Tolerance: 2.000000e-10

  Solvation:
    Cavity:  EffectivePotentialCavity
      Surface Calculator: GradientSurface with 3 nn
      Volume Calculator: KB51Volume
        compressibility: 72.57860092224
        temperature:     298.15
      EffectivePotentialCavity
        Potential: Power12Potential
          u0: 0.18eV
          pbc_cutoff: 1e-06
          tiny: 1e-10
        temperature: 298.15K    Dielectric:
      Type: LinearDielectric
      Solvent dielectric constant: 1.77    Interaction: SurfaceInteraction
      subscript: surf
      Surface_tension: 0.0011484376791625194 eV/(Angstrom^2)
XC parameters: PBE with 2 nearest neighbor stencil

Memory estimate:
  Process memory now: 266.38 MiB
  Calculator: 47.89 MiB
    Density: 4.64 MiB
      Arrays: 3.35 MiB
      Localized functions: 0.55 MiB
      Mixer: 0.73 MiB
    Hamiltonian: 32.71 MiB
      Arrays: 2.19 MiB
      XC: 0.00 MiB
      Poisson: 2.51 MiB
      vbar: 0.04 MiB
      Solvation: 27.97 MiB
    Wavefunctions: 10.55 MiB
      Arrays psit_nG: 4.88 MiB
      Eigensolver: 5.61 MiB
      Projections: 0.00 MiB
      Projectors: 0.06 MiB

Total number of cores used: 16
Domain decomposition: 4 x 2 x 2

Number of atoms: 20
Number of atomic orbitals: 53
Number of bands in calculation: 40
Number of valence electrons: 60
Bands to converge: occupied

... initialized

Initializing position-dependent things.

Solvation position-dependent initialization:
  Atomic radii for Power12Potential:
    Type    Radius   No. of atoms
       H     1.090     9
       O     1.520     2
       N     1.550     3
       C     1.700     6

Density initialized from atomic densities
Creating initial wave functions:
  40 bands from LCAO basis set

        .--------------------------------------.  
       /|                                      |  
      / |                                      |  
     /  |                                      |  
    /   |                                      |  
   /    |                                      |  
  /     |                                      |  
 *      |                                      |  
 |      |            H                         |  
 |      |       H           H                  |  
 |      |        C  N    H  C   O              |  
 |      |             C  C   H C               |  
 |      |        N       HH N   O              |  
 |      |           C        H                 |  
 |      |            H                         |  
 |      .--------------------------------------.  
 |     /                                      /   
 |    /                                      /    
 |   /                                      /     
 |  /                                      /      
 | /                                      /       
 |/                                      /        
 *--------------------------------------*         

Positions:
   0 N      9.478488    6.807768    5.022263    ( 0.0000,  0.0000,  0.0000)
   1 C      9.607925    6.133374    6.348833    ( 0.0000,  0.0000,  0.0000)
   2 C     11.027853    5.502746    6.419918    ( 0.0000,  0.0000,  0.0000)
   3 O     11.630870    5.359498    5.315263    ( 0.0000,  0.0000,  0.0000)
   4 H      9.750950    7.795747    5.065413    ( 0.0000,  0.0000,  0.0000)
   5 H      8.517581    6.760338    4.650161    ( 0.0000,  0.0000,  0.0000)
   6 H      9.502887    6.898236    7.125477    ( 0.0000,  0.0000,  0.0000)
   7 C      8.511164    5.049828    6.502018    ( 0.0000,  0.0000,  0.0000)
   8 C      7.143139    5.533343    6.150784    ( 0.0000,  0.0000,  0.0000)
   9 N      6.297404    6.202329    7.014359    ( 0.0000,  0.0000,  0.0000)
  10 C      6.473934    5.537899    4.938606    ( 0.0000,  0.0000,  0.0000)
  11 C      5.190189    6.571534    6.318070    ( 0.0000,  0.0000,  0.0000)
  12 N      5.263151    6.192930    5.046507    ( 0.0000,  0.0000,  0.0000)
  13 H      8.550331    4.681011    7.535308    ( 0.0000,  0.0000,  0.0000)
  14 H      8.756824    4.204253    5.843235    ( 0.0000,  0.0000,  0.0000)
  15 H      6.800548    5.091833    4.002464    ( 0.0000,  0.0000,  0.0000)
  16 H      4.369130    7.114206    6.776620    ( 0.0000,  0.0000,  0.0000)
  17 H      6.475496    6.393583    7.997536    ( 0.0000,  0.0000,  0.0000)
  18 O     11.433889    5.177183    7.566117    ( 0.0000,  0.0000,  0.0000)
  19 H     10.139909    6.326017    4.382698    ( 0.0000,  0.0000,  0.0000)

Unit cell:
           periodic     x           y           z      points  spacing
  1. axis:    no    16.000000    0.000000    0.000000    80     0.2000
  2. axis:    no     0.000000   12.000000    0.000000    60     0.2000
  3. axis:    no     0.000000    0.000000   12.000000    60     0.2000

  Lengths:  16.000000  12.000000  12.000000
  Angles:   90.000000  90.000000  90.000000

Effective grid spacing dv^(1/3) = 0.2000

     iter     time        total  log10-change:
                         energy   eigst   dens
iter:   1 21:49:25  -136.029998
iter:   2 21:49:27  -128.929984   +0.55  -0.74
iter:   3 21:49:28  -126.603200   +0.55  -0.93
iter:   4 21:49:29  -126.372868   -0.17  -1.20
iter:   5 21:49:30  -126.373959   -0.67  -1.54
iter:   6 21:49:31  -126.368503c  -1.16  -2.06
iter:   7 21:49:31  -126.367294c  -1.86  -2.41
iter:   8 21:49:32  -126.366438c  -2.28  -2.58
iter:   9 21:49:33  -126.366588c  -2.56  -2.87
iter:  10 21:49:33  -126.366267c  -3.05  -3.05
iter:  11 21:49:34  -126.366427c  -3.45  -3.53
iter:  12 21:49:34  -126.366536c  -3.81  -3.68
iter:  13 21:49:35  -126.366579c  -4.11  -3.96
iter:  14 21:49:35  -126.366622c  -4.46  -4.16c
iter:  15 21:49:36  -126.366473c  -4.83  -4.63c
iter:  16 21:49:36  -126.366292c  -5.07  -4.87c
iter:  17 21:49:36  -126.366577c  -5.31  -5.00c
iter:  18 21:49:37  -126.366599c  -5.62  -5.23c
iter:  19 21:49:37  -126.366654c  -5.88  -5.27c
iter:  20 21:49:37  -126.366683c  -6.16  -5.44c
iter:  21 21:49:38  -126.366616c  -6.49  -5.87c
iter:  22 21:49:38  -126.366606c  -6.76  -5.91c
iter:  23 21:49:38  -126.366609c  -7.00  -6.22c
iter:  24 21:49:39  -126.366611c  -7.25  -6.27c
iter:  25 21:49:39  -126.366617c  -7.51c -6.37c

Converged after 25 iterations.

Dipole moment: (-1.549251, 1.188067, -0.156532) |e|*Ang

Energy contributions relative to reference atoms: (reference = -14805.049268)

Kinetic:       +125.600713
Potential:     -139.022523
External:        -0.011881
XC:            -116.925401
Entropy (-ST):   +0.000000
Local:           +3.765530
Interactions  
 surf:           +0.226946
--------------------------
Free energy:   -126.366617
Extrapolated:  -126.366617

Solvation cavity surface area: 197.61247
Solvation cavity volume: 210.02125
 Band  Eigenvalues  Occupancy
    0    -25.98047    2.00000
    1    -25.78699    2.00000
    2    -24.98645    2.00000
    3    -23.08273    2.00000
    4    -22.16465    2.00000
    5    -20.37263    2.00000
    6    -18.69533    2.00000
    7    -16.79076    2.00000
    8    -15.69895    2.00000
    9    -15.32763    2.00000
   10    -14.92005    2.00000
   11    -14.72612    2.00000
   12    -13.80854    2.00000
   13    -12.96019    2.00000
   14    -12.22529    2.00000
   15    -11.49649    2.00000
   16    -11.25692    2.00000
   17    -10.94210    2.00000
   18    -10.44864    2.00000
   19    -10.33013    2.00000
   20    -10.10492    2.00000
   21     -9.61568    2.00000
   22     -9.28341    2.00000
   23     -8.84449    2.00000
   24     -7.53444    2.00000
   25     -6.81330    2.00000
   26     -6.28410    2.00000
   27     -5.79540    2.00000
   28     -5.63839    2.00000
   29     -5.10699    2.00000
   30     -1.30876    0.00000
   31     -1.13589    0.00000
   32     -0.69563    0.00000
   33     -0.41397    0.00000
   34     -0.26744    0.00000
   35      0.02737    0.00000
   36      0.24203    0.00000
   37      0.51660    0.00000
   38      0.60110    0.00000
   39      1.04129    0.00000

Fermi level: -3.20787

Gap: 3.798 eV
Transition (v -> c):
  (s=0, k=0, n=29, [0.00, 0.00, 0.00]) -> (s=0, k=0, n=30, [0.00, 0.00, 0.00])
Input parameters:
  external: {direction: [0. 0. 1.],
             name: ConstantElectricField,
             strength: 0.01}

Initialize ...

species:
  N:
    name: Nitrogen
    id: f7500608b86eaa90eef8b1d9a670dc53
    Z: 7.0
    valence: 5
    core: 2
    charge: 0.0
    file: /home/fr/fr_fr/fr_ez1021/source/gpaw-setups/gpaw-setups-0.9.20000/N.PBE.gz
    compensation charges: {type: gauss,
                           rc: 0.18,
                           lmax: 2}
    cutoffs: {filter: 1.11,
              core: 0.96}
    valence states:
      #              energy  rcut
      - 2s(2.00)   -18.583   0.603
      - 2p(3.00)    -7.089   0.529
      -  s           8.629   0.603
      -  p          20.123   0.529
      -  d           0.000   0.577
  
    # Using partial waves for N as LCAO basis

  C:
    name: Carbon
    id: 4aa54d4b901d75f77cc0ea3eec22967b
    Z: 6.0
    valence: 4
    core: 2
    charge: 0.0
    file: /home/fr/fr_fr/fr_ez1021/source/gpaw-setups/gpaw-setups-0.9.20000/C.PBE.gz
    compensation charges: {type: gauss,
                           rc: 0.20,
                           lmax: 2}
    cutoffs: {filter: 1.14,
              core: 1.14}
    valence states:
      #              energy  rcut
      - 2s(2.00)   -13.751   0.635
      - 2p(2.00)    -5.284   0.635
      -  s          13.461   0.635
      -  p          21.927   0.635
      -  d           0.000   0.635
  
    # Using partial waves for C as LCAO basis

  O:
    name: Oxygen
    id: 32ecd46bf208036f09c70b0ec9a88b78
    Z: 8.0
    valence: 6
    core: 2
    charge: 0.0
    file: /home/fr/fr_fr/fr_ez1021/source/gpaw-setups/gpaw-setups-0.9.20000/O.PBE.gz
    compensation charges: {type: gauss,
                           rc: 0.21,
                           lmax: 2}
    cutoffs: {filter: 1.17,
              core: 0.83}
    valence states:
      #              energy  rcut
      - 2s(2.00)   -23.961   0.688
      - 2p(4.00)    -9.029   0.598
      -  s           3.251   0.688
      -  p          18.182   0.598
      -  d           0.000   0.619
  
    # Using partial waves for O as LCAO basis

  H:
    name: Hydrogen
    id: d65de229564ff8ea4db303e23b6d1ecf
    Z: 1.0
    valence: 1
    core: 0
    charge: 0.0
    file: /home/fr/fr_fr/fr_ez1021/source/gpaw-setups/gpaw-setups-0.9.20000/H.PBE.gz
    compensation charges: {type: gauss,
                           rc: 0.15,
                           lmax: 2}
    cutoffs: {filter: 0.85,
              core: 0.53}
    valence states:
      #              energy  rcut
      - 1s(1.00)    -6.494   0.476
      -  s          20.717   0.476
      -  p           0.000   0.476
  
    # Using partial waves for H as LCAO basis

Reference energy: -14805.049268  # eV

Spin-paired calculation

Convergence criteria:
 Maximum [total energy] change in last 3 cyles: 0.0005 eV / valence electron
 Maximum integral of absolute [dens]ity change: 0.0001 electrons / valence electron
 Maximum integral of absolute [eigenst]ate change: 4e-08 eV^2 / valence electron
 Maximum number of scf [iter]ations: 333
 (Square brackets indicate name in SCF output, whereas a 'c' in
 the SCF output indicates the quantity has converged.)

Symmetries present (total): 1

  ( 1  0  0)
  ( 0  1  0)
  ( 0  0  1)

1 k-point (Gamma)
1 k-point in the irreducible part of the Brillouin zone
       k-points in crystal coordinates                weights
   0:     0.00000000    0.00000000    0.00000000          1/1

Wave functions: Uniform real-space grid
  Kinetic energy operator: 6*3+1=19 point O(h^6) finite-difference Laplacian
  ScaLapack parameters: grid=1x1, blocksize=None
  Wavefunction extrapolation:
    Improved wavefunction reuse through dual PAW basis 

Occupation numbers: # Zero width 

Eigensolver
   Davidson(niter=2) 

Densities:
  Coarse grid: 80*60*60 grid
  Fine grid: 160*120*120 grid
  Total Charge: 0.000000 

Density mixing:
  Method: separate
  Backend: pulay
  Linear mixing parameter: 0.25
  old densities: 3
  Damping of long wavelength oscillations: 1  # (no daming) 

Hamiltonian:
  XC and Coulomb potentials evaluated on a 160*120*120 grid
  Using the PBE Exchange-Correlation functional
  External potential:
    Constant electric field: (0.000, 0.000, 0.010) V/Ang
  Interpolation: tri-quintic (5. degree polynomial)
  Poisson solver: Jacobi weighted FD solver with dielectric and 4 multi-grid levels
    Coarsest grid: 20 x 15 x 15 points
    Stencil: Weighted Finite Difference Operator
      6*3+1=19 point O(h^6) finite-difference Laplacian
      Finite-difference x-derivative with O(h^6) error (6 points)
      Finite-difference y-derivative with O(h^6) error (6 points)
      Finite-difference z-derivative with O(h^6) error (6 points)
    Max iterations: 1000
    Tolerance: 2.000000e-10

  Solvation:
    Cavity:  EffectivePotentialCavity
      Surface Calculator: GradientSurface with 3 nn
      Volume Calculator: KB51Volume
        compressibility: 72.57860092224
        temperature:     298.15
      EffectivePotentialCavity
        Potential: Power12Potential
          u0: 0.18eV
          pbc_cutoff: 1e-06
          tiny: 1e-10
        temperature: 298.15K    Dielectric:
      Type: LinearDielectric
      Solvent dielectric constant: 1.77    Interaction: SurfaceInteraction
      subscript: surf
      Surface_tension: 0.0011484376791625194 eV/(Angstrom^2)
XC parameters: PBE with 2 nearest neighbor stencil

Memory estimate:
  Process memory now: 272.10 MiB
  Calculator: 47.89 MiB
    Density: 4.64 MiB
      Arrays: 3.35 MiB
      Localized functions: 0.55 MiB
      Mixer: 0.73 MiB
    Hamiltonian: 32.71 MiB
      Arrays: 2.19 MiB
      XC: 0.00 MiB
      Poisson: 2.51 MiB
      vbar: 0.04 MiB
      Solvation: 27.97 MiB
    Wavefunctions: 10.55 MiB
      Arrays psit_nG: 4.88 MiB
      Eigensolver: 5.61 MiB
      Projections: 0.00 MiB
      Projectors: 0.06 MiB

Total number of cores used: 16
Domain decomposition: 4 x 2 x 2

Number of atoms: 20
Number of atomic orbitals: 53
Number of bands in calculation: 40
Number of valence electrons: 60
Bands to converge: occupied

... initialized

Initializing position-dependent things.

Solvation position-dependent initialization:
  Atomic radii for Power12Potential:
    Type    Radius   No. of atoms
       H     1.090     9
       O     1.520     2
       N     1.550     3
       C     1.700     6

Density initialized from atomic densities
Creating initial wave functions:
  40 bands from LCAO basis set

        .--------------------------------------.  
       /|                                      |  
      / |                                      |  
     /  |                                      |  
    /   |                                      |  
   /    |                                      |  
  /     |                                      |  
 *      |                                      |  
 |      |            H                         |  
 |      |       H           H                  |  
 |      |        C  N    H  C   O              |  
 |      |             C  C   H C               |  
 |      |        N       HH N   O              |  
 |      |           C        H                 |  
 |      |            H                         |  
 |      .--------------------------------------.  
 |     /                                      /   
 |    /                                      /    
 |   /                                      /     
 |  /                                      /      
 | /                                      /       
 |/                                      /        
 *--------------------------------------*         

Positions:
   0 N      9.478488    6.807768    5.022263    ( 0.0000,  0.0000,  0.0000)
   1 C      9.607925    6.133374    6.348833    ( 0.0000,  0.0000,  0.0000)
   2 C     11.027853    5.502746    6.419918    ( 0.0000,  0.0000,  0.0000)
   3 O     11.630870    5.359498    5.315263    ( 0.0000,  0.0000,  0.0000)
   4 H      9.750950    7.795747    5.065413    ( 0.0000,  0.0000,  0.0000)
   5 H      8.517581    6.760338    4.650161    ( 0.0000,  0.0000,  0.0000)
   6 H      9.502887    6.898236    7.125477    ( 0.0000,  0.0000,  0.0000)
   7 C      8.511164    5.049828    6.502018    ( 0.0000,  0.0000,  0.0000)
   8 C      7.143139    5.533343    6.150784    ( 0.0000,  0.0000,  0.0000)
   9 N      6.297404    6.202329    7.014359    ( 0.0000,  0.0000,  0.0000)
  10 C      6.473934    5.537899    4.938606    ( 0.0000,  0.0000,  0.0000)
  11 C      5.190189    6.571534    6.318070    ( 0.0000,  0.0000,  0.0000)
  12 N      5.263151    6.192930    5.046507    ( 0.0000,  0.0000,  0.0000)
  13 H      8.550331    4.681011    7.535308    ( 0.0000,  0.0000,  0.0000)
  14 H      8.756824    4.204253    5.843235    ( 0.0000,  0.0000,  0.0000)
  15 H      6.800548    5.091833    4.002464    ( 0.0000,  0.0000,  0.0000)
  16 H      4.369130    7.114206    6.776620    ( 0.0000,  0.0000,  0.0000)
  17 H      6.475496    6.393583    7.997536    ( 0.0000,  0.0000,  0.0000)
  18 O     11.433889    5.177183    7.566117    ( 0.0000,  0.0000,  0.0000)
  19 H     10.139909    6.326017    4.382698    ( 0.0000,  0.0000,  0.0000)

Unit cell:
           periodic     x           y           z      points  spacing
  1. axis:    no    16.000000    0.000000    0.000000    80     0.2000
  2. axis:    no     0.000000   12.000000    0.000000    60     0.2000
  3. axis:    no     0.000000    0.000000   12.000000    60     0.2000

  Lengths:  16.000000  12.000000  12.000000
  Angles:   90.000000  90.000000  90.000000

Effective grid spacing dv^(1/3) = 0.2000

     iter     time        total  log10-change:
                         energy   eigst   dens
iter:   1 21:49:42  -136.012632
iter:   2 21:49:43  -128.914620   +0.55  -0.74
iter:   3 21:49:45  -126.590104   +0.55  -0.93
iter:   4 21:49:46  -126.359639   -0.17  -1.20
iter:   5 21:49:47  -126.360639   -0.67  -1.54
iter:   6 21:49:48  -126.355159c  -1.16  -2.06
iter:   7 21:49:48  -126.353952c  -1.87  -2.41
iter:   8 21:49:49  -126.353102c  -2.28  -2.58
iter:   9 21:49:49  -126.353258c  -2.56  -2.87
iter:  10 21:49:50  -126.352935c  -3.05  -3.05
iter:  11 21:49:50  -126.353095c  -3.46  -3.53
iter:  12 21:49:51  -126.353205c  -3.81  -3.68
iter:  13 21:49:51  -126.353247c  -4.11  -3.96
iter:  14 21:49:52  -126.353291c  -4.47  -4.16c
iter:  15 21:49:52  -126.353141c  -4.83  -4.63c
iter:  16 21:49:53  -126.352961c  -5.08  -4.87c
iter:  17 21:49:53  -126.353246c  -5.31  -5.00c
iter:  18 21:49:53  -126.353270c  -5.63  -5.23c
iter:  19 21:49:54  -126.353324c  -5.88  -5.27c
iter:  20 21:49:54  -126.353352c  -6.17  -5.43c
iter:  21 21:49:55  -126.353284c  -6.50  -5.86c
iter:  22 21:49:55  -126.353273c  -6.77  -5.91c
iter:  23 21:49:55  -126.353277c  -7.00  -6.24c
iter:  24 21:49:56  -126.353280c  -7.26  -6.28c
iter:  25 21:49:56  -126.353285c  -7.52c -6.33c

Converged after 25 iterations.

Dipole moment: (-1.546685, 1.178238, -0.143479) |e|*Ang

Energy contributions relative to reference atoms: (reference = -14805.049268)

Kinetic:       +125.601768
Potential:     -139.026218
External:        +0.001435
XC:            -116.922690
Entropy (-ST):   +0.000000
Local:           +3.765474
Interactions  
 surf:           +0.226946
--------------------------
Free energy:   -126.353285
Extrapolated:  -126.353285

Solvation cavity surface area: 197.61247
Solvation cavity volume: 210.02125
 Band  Eigenvalues  Occupancy
    0    -25.98030    2.00000
    1    -25.78827    2.00000
    2    -24.98591    2.00000
    3    -23.07541    2.00000
    4    -22.16505    2.00000
    5    -20.36915    2.00000
    6    -18.69525    2.00000
    7    -16.78930    2.00000
    8    -15.69701    2.00000
    9    -15.32945    2.00000
   10    -14.92672    2.00000
   11    -14.73263    2.00000
   12    -13.80801    2.00000
   13    -12.96003    2.00000
   14    -12.22316    2.00000
   15    -11.49542    2.00000
   16    -11.25648    2.00000
   17    -10.93797    2.00000
   18    -10.45044    2.00000
   19    -10.32561    2.00000
   20    -10.09953    2.00000
   21     -9.60813    2.00000
   22     -9.27532    2.00000
   23     -8.83857    2.00000
   24     -7.53544    2.00000
   25     -6.81865    2.00000
   26     -6.28371    2.00000
   27     -5.78742    2.00000
   28     -5.63508    2.00000
   29     -5.09652    2.00000
   30     -1.32624    0.00000
   31     -1.13676    0.00000
   32     -0.68843    0.00000
   33     -0.41624    0.00000
   34     -0.27452    0.00000
   35      0.03172    0.00000
   36      0.24170    0.00000
   37      0.51123    0.00000
   38      0.60569    0.00000
   39      1.04108    0.00000

Fermi level: -3.21138

Gap: 3.770 eV
Transition (v -> c):
  (s=0, k=0, n=29, [0.00, 0.00, 0.00]) -> (s=0, k=0, n=30, [0.00, 0.00, 0.00])
Input parameters:
  external: None

Initialize ...

species:
  N:
    name: Nitrogen
    id: f7500608b86eaa90eef8b1d9a670dc53
    Z: 7.0
    valence: 5
    core: 2
    charge: 0.0
    file: /home/fr/fr_fr/fr_ez1021/source/gpaw-setups/gpaw-setups-0.9.20000/N.PBE.gz
    compensation charges: {type: gauss,
                           rc: 0.18,
                           lmax: 2}
    cutoffs: {filter: 1.11,
              core: 0.96}
    valence states:
      #              energy  rcut
      - 2s(2.00)   -18.583   0.603
      - 2p(3.00)    -7.089   0.529
      -  s           8.629   0.603
      -  p          20.123   0.529
      -  d           0.000   0.577
  
    # Using partial waves for N as LCAO basis

  C:
    name: Carbon
    id: 4aa54d4b901d75f77cc0ea3eec22967b
    Z: 6.0
    valence: 4
    core: 2
    charge: 0.0
    file: /home/fr/fr_fr/fr_ez1021/source/gpaw-setups/gpaw-setups-0.9.20000/C.PBE.gz
    compensation charges: {type: gauss,
                           rc: 0.20,
                           lmax: 2}
    cutoffs: {filter: 1.14,
              core: 1.14}
    valence states:
      #              energy  rcut
      - 2s(2.00)   -13.751   0.635
      - 2p(2.00)    -5.284   0.635
      -  s          13.461   0.635
      -  p          21.927   0.635
      -  d           0.000   0.635
  
    # Using partial waves for C as LCAO basis

  O:
    name: Oxygen
    id: 32ecd46bf208036f09c70b0ec9a88b78
    Z: 8.0
    valence: 6
    core: 2
    charge: 0.0
    file: /home/fr/fr_fr/fr_ez1021/source/gpaw-setups/gpaw-setups-0.9.20000/O.PBE.gz
    compensation charges: {type: gauss,
                           rc: 0.21,
                           lmax: 2}
    cutoffs: {filter: 1.17,
              core: 0.83}
    valence states:
      #              energy  rcut
      - 2s(2.00)   -23.961   0.688
      - 2p(4.00)    -9.029   0.598
      -  s           3.251   0.688
      -  p          18.182   0.598
      -  d           0.000   0.619
  
    # Using partial waves for O as LCAO basis

  H:
    name: Hydrogen
    id: d65de229564ff8ea4db303e23b6d1ecf
    Z: 1.0
    valence: 1
    core: 0
    charge: 0.0
    file: /home/fr/fr_fr/fr_ez1021/source/gpaw-setups/gpaw-setups-0.9.20000/H.PBE.gz
    compensation charges: {type: gauss,
                           rc: 0.15,
                           lmax: 2}
    cutoffs: {filter: 0.85,
              core: 0.53}
    valence states:
      #              energy  rcut
      - 1s(1.00)    -6.494   0.476
      -  s          20.717   0.476
      -  p           0.000   0.476
  
    # Using partial waves for H as LCAO basis

Reference energy: -14805.049268  # eV

Spin-paired calculation

Convergence criteria:
 Maximum [total energy] change in last 3 cyles: 0.0005 eV / valence electron
 Maximum integral of absolute [dens]ity change: 0.0001 electrons / valence electron
 Maximum integral of absolute [eigenst]ate change: 4e-08 eV^2 / valence electron
 Maximum number of scf [iter]ations: 333
 (Square brackets indicate name in SCF output, whereas a 'c' in
 the SCF output indicates the quantity has converged.)

Symmetries present (total): 1

  ( 1  0  0)
  ( 0  1  0)
  ( 0  0  1)

1 k-point (Gamma)
1 k-point in the irreducible part of the Brillouin zone
       k-points in crystal coordinates                weights
   0:     0.00000000    0.00000000    0.00000000          1/1

Wave functions: Uniform real-space grid
  Kinetic energy operator: 6*3+1=19 point O(h^6) finite-difference Laplacian
  ScaLapack parameters: grid=1x1, blocksize=None
  Wavefunction extrapolation:
    Improved wavefunction reuse through dual PAW basis 

Occupation numbers: # Zero width 

Eigensolver
   Davidson(niter=2) 

Densities:
  Coarse grid: 80*60*60 grid
  Fine grid: 160*120*120 grid
  Total Charge: 0.000000 

Density mixing:
  Method: separate
  Backend: pulay
  Linear mixing parameter: 0.25
  old densities: 3
  Damping of long wavelength oscillations: 1  # (no daming) 

Hamiltonian:
  XC and Coulomb potentials evaluated on a 160*120*120 grid
  Using the PBE Exchange-Correlation functional
  Interpolation: tri-quintic (5. degree polynomial)
  Poisson solver: Jacobi weighted FD solver with dielectric and 4 multi-grid levels
    Coarsest grid: 20 x 15 x 15 points
    Stencil: Weighted Finite Difference Operator
      6*3+1=19 point O(h^6) finite-difference Laplacian
      Finite-difference x-derivative with O(h^6) error (6 points)
      Finite-difference y-derivative with O(h^6) error (6 points)
      Finite-difference z-derivative with O(h^6) error (6 points)
    Max iterations: 1000
    Tolerance: 2.000000e-10

  Solvation:
    Cavity:  EffectivePotentialCavity
      Surface Calculator: GradientSurface with 3 nn
      Volume Calculator: KB51Volume
        compressibility: 72.57860092224
        temperature:     298.15
      EffectivePotentialCavity
        Potential: Power12Potential
          u0: 0.18eV
          pbc_cutoff: 1e-06
          tiny: 1e-10
        temperature: 298.15K    Dielectric:
      Type: LinearDielectric
      Solvent dielectric constant: 1.77    Interaction: SurfaceInteraction
      subscript: surf
      Surface_tension: 0.0011484376791625194 eV/(Angstrom^2)
XC parameters: PBE with 2 nearest neighbor stencil

Memory estimate:
  Process memory now: 274.77 MiB
  Calculator: 47.89 MiB
    Density: 4.64 MiB
      Arrays: 3.35 MiB
      Localized functions: 0.55 MiB
      Mixer: 0.73 MiB
    Hamiltonian: 32.71 MiB
      Arrays: 2.19 MiB
      XC: 0.00 MiB
      Poisson: 2.51 MiB
      vbar: 0.04 MiB
      Solvation: 27.97 MiB
    Wavefunctions: 10.55 MiB
      Arrays psit_nG: 4.88 MiB
      Eigensolver: 5.61 MiB
      Projections: 0.00 MiB
      Projectors: 0.06 MiB

Total number of cores used: 16
Domain decomposition: 4 x 2 x 2

Number of atoms: 20
Number of atomic orbitals: 53
Number of bands in calculation: 40
Number of valence electrons: 60
Bands to converge: occupied

... initialized

Initializing position-dependent things.

Solvation position-dependent initialization:
  Atomic radii for Power12Potential:
    Type    Radius   No. of atoms
       H     1.090     9
       O     1.520     2
       N     1.550     3
       C     1.700     6

Density initialized from atomic densities
Creating initial wave functions:
  40 bands from LCAO basis set

        .--------------------------------------.  
       /|                                      |  
      / |                                      |  
     /  |                                      |  
    /   |                                      |  
   /    |                                      |  
  /     |                                      |  
 *      |                                      |  
 |      |            H                         |  
 |      |       H           H                  |  
 |      |        C  N    H  C   O              |  
 |      |             C  C   H C               |  
 |      |        N       HH N   O              |  
 |      |           C        H                 |  
 |      |            H                         |  
 |      .--------------------------------------.  
 |     /                                      /   
 |    /                                      /    
 |   /                                      /     
 |  /                                      /      
 | /                                      /       
 |/                                      /        
 *--------------------------------------*         

Positions:
   0 N      9.478488    6.807768    5.022263    ( 0.0000,  0.0000,  0.0000)
   1 C      9.607925    6.133374    6.348833    ( 0.0000,  0.0000,  0.0000)
   2 C     11.027853    5.502746    6.419918    ( 0.0000,  0.0000,  0.0000)
   3 O     11.630870    5.359498    5.315263    ( 0.0000,  0.0000,  0.0000)
   4 H      9.750950    7.795747    5.065413    ( 0.0000,  0.0000,  0.0000)
   5 H      8.517581    6.760338    4.650161    ( 0.0000,  0.0000,  0.0000)
   6 H      9.502887    6.898236    7.125477    ( 0.0000,  0.0000,  0.0000)
   7 C      8.511164    5.049828    6.502018    ( 0.0000,  0.0000,  0.0000)
   8 C      7.143139    5.533343    6.150784    ( 0.0000,  0.0000,  0.0000)
   9 N      6.297404    6.202329    7.014359    ( 0.0000,  0.0000,  0.0000)
  10 C      6.473934    5.537899    4.938606    ( 0.0000,  0.0000,  0.0000)
  11 C      5.190189    6.571534    6.318070    ( 0.0000,  0.0000,  0.0000)
  12 N      5.263151    6.192930    5.046507    ( 0.0000,  0.0000,  0.0000)
  13 H      8.550331    4.681011    7.535308    ( 0.0000,  0.0000,  0.0000)
  14 H      8.756824    4.204253    5.843235    ( 0.0000,  0.0000,  0.0000)
  15 H      6.800548    5.091833    4.002464    ( 0.0000,  0.0000,  0.0000)
  16 H      4.369130    7.114206    6.776620    ( 0.0000,  0.0000,  0.0000)
  17 H      6.475496    6.393583    7.997536    ( 0.0000,  0.0000,  0.0000)
  18 O     11.433889    5.177183    7.566117    ( 0.0000,  0.0000,  0.0000)
  19 H     10.139909    6.326017    4.382698    ( 0.0000,  0.0000,  0.0000)

Unit cell:
           periodic     x           y           z      points  spacing
  1. axis:    no    16.000000    0.000000    0.000000    80     0.2000
  2. axis:    no     0.000000   12.000000    0.000000    60     0.2000
  3. axis:    no     0.000000    0.000000   12.000000    60     0.2000

  Lengths:  16.000000  12.000000  12.000000
  Angles:   90.000000  90.000000  90.000000

Effective grid spacing dv^(1/3) = 0.2000

     iter     time        total  log10-change:
                         energy   eigst   dens
iter:   1 21:49:59  -136.013177
iter:   2 21:50:00  -128.916927   +0.55  -0.74
iter:   3 21:50:02  -126.591302   +0.55  -0.93
iter:   4 21:50:03  -126.361085   -0.17  -1.20
iter:   5 21:50:04  -126.362139   -0.67  -1.54
iter:   6 21:50:04  -126.356677c  -1.16  -2.06
iter:   7 21:50:05  -126.355463c  -1.86  -2.41
iter:   8 21:50:06  -126.354607c  -2.28  -2.58
iter:   9 21:50:06  -126.354758c  -2.56  -2.87
iter:  10 21:50:07  -126.354436c  -3.05  -3.05
iter:  11 21:50:07  -126.354594c  -3.45  -3.53
iter:  12 21:50:08  -126.354703c  -3.81  -3.68
iter:  13 21:50:08  -126.354746c  -4.11  -3.96
iter:  14 21:50:09  -126.354791c  -4.47  -4.16c
iter:  15 21:50:09  -126.354638c  -4.83  -4.63c
iter:  16 21:50:10  -126.354456c  -5.07  -4.86c
iter:  17 21:50:10  -126.354746c  -5.32  -4.99c
iter:  18 21:50:10  -126.354756c  -5.63  -5.24c
iter:  19 21:50:11  -126.354813c  -5.88  -5.29c
iter:  20 21:50:11  -126.354857c  -6.16  -5.44c
iter:  21 21:50:11  -126.354788c  -6.49  -5.88c
iter:  22 21:50:12  -126.354777c  -6.76  -5.91c
iter:  23 21:50:12  -126.354778c  -7.00  -6.13c
iter:  24 21:50:13  -126.354781c  -7.26  -6.29c
iter:  25 21:50:13  -126.354783c  -7.54c -6.59c

Converged after 25 iterations.

Dipole moment: (-1.547298, 1.178364, -0.156409) |e|*Ang

Energy contributions relative to reference atoms: (reference = -14805.049268)

Kinetic:       +125.605834
Potential:     -139.028798
External:        +0.000000
XC:            -116.924253
Entropy (-ST):   +0.000000
Local:           +3.765489
Interactions  
 surf:           +0.226946
--------------------------
Free energy:   -126.354783
Extrapolated:  -126.354783

Solvation cavity surface area: 197.61247
Solvation cavity volume: 210.02125
 Band  Eigenvalues  Occupancy
    0    -25.98068    2.00000
    1    -25.78714    2.00000
    2    -24.98569    2.00000
    3    -23.07839    2.00000
    4    -22.16482    2.00000
    5    -20.37019    2.00000
    6    -18.69510    2.00000
    7    -16.78960    2.00000
    8    -15.69923    2.00000
    9    -15.32773    2.00000
   10    -14.92286    2.00000
   11    -14.72923    2.00000
   12    -13.80855    2.00000
   13    -12.96025    2.00000
   14    -12.22375    2.00000
   15    -11.49562    2.00000
   16    -11.25688    2.00000
   17    -10.93930    2.00000
   18    -10.44755    2.00000
   19    -10.32721    2.00000
   20    -10.10096    2.00000
   21     -9.61130    2.00000
   22     -9.27875    2.00000
   23     -8.84097    2.00000
   24     -7.53448    2.00000
   25     -6.81390    2.00000
   26     -6.28287    2.00000
   27     -5.79057    2.00000
   28     -5.63472    2.00000
   29     -5.10225    2.00000
   30     -1.32110    0.00000
   31     -1.13684    0.00000
   32     -0.69744    0.00000
   33     -0.41649    0.00000
   34     -0.27014    0.00000
   35      0.03132    0.00000
   36      0.24007    0.00000
   37      0.51093    0.00000
   38      0.60517    0.00000
   39      1.03816    0.00000

Fermi level: -3.21167

Gap: 3.781 eV
Transition (v -> c):
  (s=0, k=0, n=29, [0.00, 0.00, 0.00]) -> (s=0, k=0, n=30, [0.00, 0.00, 0.00])
Input parameters:
  external: {direction: [1. 0. 0.],
             name: ConstantElectricField,
             strength: 0.01169603524229075}

Initialize ...

species:
  N:
    name: Nitrogen
    id: f7500608b86eaa90eef8b1d9a670dc53
    Z: 7.0
    valence: 5
    core: 2
    charge: 0.0
    file: /home/fr/fr_fr/fr_ez1021/source/gpaw-setups/gpaw-setups-0.9.20000/N.PBE.gz
    compensation charges: {type: gauss,
                           rc: 0.18,
                           lmax: 2}
    cutoffs: {filter: 1.11,
              core: 0.96}
    valence states:
      #              energy  rcut
      - 2s(2.00)   -18.583   0.603
      - 2p(3.00)    -7.089   0.529
      -  s           8.629   0.603
      -  p          20.123   0.529
      -  d           0.000   0.577
  
    # Using partial waves for N as LCAO basis

  C:
    name: Carbon
    id: 4aa54d4b901d75f77cc0ea3eec22967b
    Z: 6.0
    valence: 4
    core: 2
    charge: 0.0
    file: /home/fr/fr_fr/fr_ez1021/source/gpaw-setups/gpaw-setups-0.9.20000/C.PBE.gz
    compensation charges: {type: gauss,
                           rc: 0.20,
                           lmax: 2}
    cutoffs: {filter: 1.14,
              core: 1.14}
    valence states:
      #              energy  rcut
      - 2s(2.00)   -13.751   0.635
      - 2p(2.00)    -5.284   0.635
      -  s          13.461   0.635
      -  p          21.927   0.635
      -  d           0.000   0.635
  
    # Using partial waves for C as LCAO basis

  O:
    name: Oxygen
    id: 32ecd46bf208036f09c70b0ec9a88b78
    Z: 8.0
    valence: 6
    core: 2
    charge: 0.0
    file: /home/fr/fr_fr/fr_ez1021/source/gpaw-setups/gpaw-setups-0.9.20000/O.PBE.gz
    compensation charges: {type: gauss,
                           rc: 0.21,
                           lmax: 2}
    cutoffs: {filter: 1.17,
              core: 0.83}
    valence states:
      #              energy  rcut
      - 2s(2.00)   -23.961   0.688
      - 2p(4.00)    -9.029   0.598
      -  s           3.251   0.688
      -  p          18.182   0.598
      -  d           0.000   0.619
  
    # Using partial waves for O as LCAO basis

  H:
    name: Hydrogen
    id: d65de229564ff8ea4db303e23b6d1ecf
    Z: 1.0
    valence: 1
    core: 0
    charge: 0.0
    file: /home/fr/fr_fr/fr_ez1021/source/gpaw-setups/gpaw-setups-0.9.20000/H.PBE.gz
    compensation charges: {type: gauss,
                           rc: 0.15,
                           lmax: 2}
    cutoffs: {filter: 0.85,
              core: 0.53}
    valence states:
      #              energy  rcut
      - 1s(1.00)    -6.494   0.476
      -  s          20.717   0.476
      -  p           0.000   0.476
  
    # Using partial waves for H as LCAO basis

Reference energy: -14805.049268  # eV

Spin-paired calculation

Convergence criteria:
 Maximum [total energy] change in last 3 cyles: 0.0005 eV / valence electron
 Maximum integral of absolute [dens]ity change: 0.0001 electrons / valence electron
 Maximum integral of absolute [eigenst]ate change: 4e-08 eV^2 / valence electron
 Maximum number of scf [iter]ations: 333
 (Square brackets indicate name in SCF output, whereas a 'c' in
 the SCF output indicates the quantity has converged.)

Symmetries present (total): 1

  ( 1  0  0)
  ( 0  1  0)
  ( 0  0  1)

1 k-point (Gamma)
1 k-point in the irreducible part of the Brillouin zone
       k-points in crystal coordinates                weights
   0:     0.00000000    0.00000000    0.00000000          1/1

Wave functions: Uniform real-space grid
  Kinetic energy operator: 6*3+1=19 point O(h^6) finite-difference Laplacian
  ScaLapack parameters: grid=1x1, blocksize=None
  Wavefunction extrapolation:
    Improved wavefunction reuse through dual PAW basis 

Occupation numbers: # Zero width 

Eigensolver
   Davidson(niter=2) 

Densities:
  Coarse grid: 80*60*60 grid
  Fine grid: 160*120*120 grid
  Total Charge: 0.000000 

Density mixing:
  Method: separate
  Backend: pulay
  Linear mixing parameter: 0.25
  old densities: 3
  Damping of long wavelength oscillations: 1  # (no daming) 

Hamiltonian:
  XC and Coulomb potentials evaluated on a 160*120*120 grid
  Using the PBE Exchange-Correlation functional
  External potential:
    Constant electric field: (0.012, 0.000, 0.000) V/Ang
  Interpolation: tri-quintic (5. degree polynomial)
  Poisson solver: Jacobi weighted FD solver with dielectric and 4 multi-grid levels
    Coarsest grid: 20 x 15 x 15 points
    Stencil: Weighted Finite Difference Operator
      6*3+1=19 point O(h^6) finite-difference Laplacian
      Finite-difference x-derivative with O(h^6) error (6 points)
      Finite-difference y-derivative with O(h^6) error (6 points)
      Finite-difference z-derivative with O(h^6) error (6 points)
    Max iterations: 1000
    Tolerance: 2.000000e-10

  Solvation:
    Cavity:  EffectivePotentialCavity
      Surface Calculator: GradientSurface with 3 nn
      Volume Calculator: KB51Volume
        compressibility: 72.57860092224
        temperature:     298.15
      EffectivePotentialCavity
        Potential: Power12Potential
          u0: 0.18eV
          pbc_cutoff: 1e-06
          tiny: 1e-10
        temperature: 298.15K    Dielectric:
      Type: LinearDielectric
      Solvent dielectric constant: 1.77    Interaction: SurfaceInteraction
      subscript: surf
      Surface_tension: 0.0011484376791625194 eV/(Angstrom^2)
XC parameters: PBE with 2 nearest neighbor stencil

Memory estimate:
  Process memory now: 278.23 MiB
  Calculator: 47.89 MiB
    Density: 4.64 MiB
      Arrays: 3.35 MiB
      Localized functions: 0.55 MiB
      Mixer: 0.73 MiB
    Hamiltonian: 32.71 MiB
      Arrays: 2.19 MiB
      XC: 0.00 MiB
      Poisson: 2.51 MiB
      vbar: 0.04 MiB
      Solvation: 27.97 MiB
    Wavefunctions: 10.55 MiB
      Arrays psit_nG: 4.88 MiB
      Eigensolver: 5.61 MiB
      Projections: 0.00 MiB
      Projectors: 0.06 MiB

Total number of cores used: 16
Domain decomposition: 4 x 2 x 2

Number of atoms: 20
Number of atomic orbitals: 53
Number of bands in calculation: 40
Number of valence electrons: 60
Bands to converge: occupied

... initialized

Initializing position-dependent things.

Solvation position-dependent initialization:
  Atomic radii for Power12Potential:
    Type    Radius   No. of atoms
       H     1.090     9
       O     1.520     2
       N     1.550     3
       C     1.700     6

Density initialized from atomic densities
Creating initial wave functions:
  40 bands from LCAO basis set

        .--------------------------------------.  
       /|                                      |  
      / |                                      |  
     /  |                                      |  
    /   |                                      |  
   /    |                                      |  
  /     |                                      |  
 *      |                                      |  
 |      |            H                         |  
 |      |       H           H                  |  
 |      |        C  N    H  C   O              |  
 |      |             C  C   H C               |  
 |      |        N       HH N   O              |  
 |      |           C        H                 |  
 |      |            H                         |  
 |      .--------------------------------------.  
 |     /                                      /   
 |    /                                      /    
 |   /                                      /     
 |  /                                      /      
 | /                                      /       
 |/                                      /        
 *--------------------------------------*         

Positions:
   0 N      9.478488    6.807768    5.022263    ( 0.0000,  0.0000,  0.0000)
   1 C      9.607925    6.133374    6.348833    ( 0.0000,  0.0000,  0.0000)
   2 C     11.027853    5.502746    6.419918    ( 0.0000,  0.0000,  0.0000)
   3 O     11.630870    5.359498    5.315263    ( 0.0000,  0.0000,  0.0000)
   4 H      9.750950    7.795747    5.065413    ( 0.0000,  0.0000,  0.0000)
   5 H      8.517581    6.760338    4.650161    ( 0.0000,  0.0000,  0.0000)
   6 H      9.502887    6.898236    7.125477    ( 0.0000,  0.0000,  0.0000)
   7 C      8.511164    5.049828    6.502018    ( 0.0000,  0.0000,  0.0000)
   8 C      7.143139    5.533343    6.150784    ( 0.0000,  0.0000,  0.0000)
   9 N      6.297404    6.202329    7.014359    ( 0.0000,  0.0000,  0.0000)
  10 C      6.473934    5.537899    4.938606    ( 0.0000,  0.0000,  0.0000)
  11 C      5.190189    6.571534    6.318070    ( 0.0000,  0.0000,  0.0000)
  12 N      5.263151    6.192930    5.046507    ( 0.0000,  0.0000,  0.0000)
  13 H      8.550331    4.681011    7.535308    ( 0.0000,  0.0000,  0.0000)
  14 H      8.756824    4.204253    5.843235    ( 0.0000,  0.0000,  0.0000)
  15 H      6.800548    5.091833    4.002464    ( 0.0000,  0.0000,  0.0000)
  16 H      4.369130    7.114206    6.776620    ( 0.0000,  0.0000,  0.0000)
  17 H      6.475496    6.393583    7.997536    ( 0.0000,  0.0000,  0.0000)
  18 O     11.433889    5.177183    7.566117    ( 0.0000,  0.0000,  0.0000)
  19 H     10.139909    6.326017    4.382698    ( 0.0000,  0.0000,  0.0000)

Unit cell:
           periodic     x           y           z      points  spacing
  1. axis:    no    16.000000    0.000000    0.000000    80     0.2000
  2. axis:    no     0.000000   12.000000    0.000000    60     0.2000
  3. axis:    no     0.000000    0.000000   12.000000    60     0.2000

  Lengths:  16.000000  12.000000  12.000000
  Angles:   90.000000  90.000000  90.000000

Effective grid spacing dv^(1/3) = 0.2000

     iter     time        total  log10-change:
                         energy   eigst   dens
iter:   1 21:50:16  -135.992029
iter:   2 21:50:17  -128.897744   +0.55  -0.74
iter:   3 21:50:18  -126.572804   +0.55  -0.93
iter:   4 21:50:19  -126.342975   -0.17  -1.20
iter:   5 21:50:20  -126.344089   -0.67  -1.54
iter:   6 21:50:21  -126.338668c  -1.16  -2.06
iter:   7 21:50:22  -126.337465c  -1.86  -2.41
iter:   8 21:50:22  -126.336610c  -2.28  -2.58
iter:   9 21:50:23  -126.336768c  -2.56  -2.87
iter:  10 21:50:24  -126.336444c  -3.04  -3.05
iter:  11 21:50:24  -126.336605c  -3.45  -3.53
iter:  12 21:50:25  -126.336715c  -3.81  -3.68
iter:  13 21:50:25  -126.336759c  -4.11  -3.96
iter:  14 21:50:26  -126.336804c  -4.46  -4.16c
iter:  15 21:50:26  -126.336652c  -4.82  -4.63c
iter:  16 21:50:26  -126.336470c  -5.07  -4.87c
iter:  17 21:50:27  -126.336758c  -5.31  -5.00c
iter:  18 21:50:27  -126.336776c  -5.62  -5.23c
iter:  19 21:50:27  -126.336831c  -5.87  -5.28c
iter:  20 21:50:28  -126.336871c  -6.16  -5.42c
iter:  21 21:50:28  -126.336797c  -6.49  -5.87c
iter:  22 21:50:29  -126.336785c  -6.75  -5.90c
iter:  23 21:50:29  -126.336789c  -6.99  -6.20c
iter:  24 21:50:29  -126.336792c  -7.24  -6.29c
iter:  25 21:50:30  -126.336799c  -7.50c -6.39c

Converged after 25 iterations.

Dipole moment: (-1.528461, 1.176077, -0.155690) |e|*Ang

Energy contributions relative to reference atoms: (reference = -14805.049268)

Kinetic:       +125.606114
Potential:     -139.031717
External:        +0.017877
XC:            -116.921424
Entropy (-ST):   +0.000000
Local:           +3.765405
Interactions  
 surf:           +0.226946
--------------------------
Free energy:   -126.336799
Extrapolated:  -126.336799

Solvation cavity surface area: 197.61247
Solvation cavity volume: 210.02125
 Band  Eigenvalues  Occupancy
    0    -25.99349    2.00000
    1    -25.76963    2.00000
    2    -24.96191    2.00000
    3    -23.04813    2.00000
    4    -22.18223    2.00000
    5    -20.36961    2.00000
    6    -18.69761    2.00000
    7    -16.78634    2.00000
    8    -15.71521    2.00000
    9    -15.33664    2.00000
   10    -14.90742    2.00000
   11    -14.72210    2.00000
   12    -13.81467    2.00000
   13    -12.95037    2.00000
   14    -12.21284    2.00000
   15    -11.50594    2.00000
   16    -11.26514    2.00000
   17    -10.93309    2.00000
   18    -10.46260    2.00000
   19    -10.32669    2.00000
   20    -10.08535    2.00000
   21     -9.59727    2.00000
   22     -9.24936    2.00000
   23     -8.81571    2.00000
   24     -7.55204    2.00000
   25     -6.83580    2.00000
   26     -6.29363    2.00000
   27     -5.75898    2.00000
   28     -5.60813    2.00000
   29     -5.07172    2.00000
   30     -1.31320    0.00000
   31     -1.14853    0.00000
   32     -0.70762    0.00000
   33     -0.42273    0.00000
   34     -0.26740    0.00000
   35      0.03733    0.00000
   36      0.24146    0.00000
   37      0.50316    0.00000
   38      0.60125    0.00000
   39      1.04239    0.00000

Fermi level: -3.19246

Gap: 3.759 eV
Transition (v -> c):
  (s=0, k=0, n=29, [0.00, 0.00, 0.00]) -> (s=0, k=0, n=30, [0.00, 0.00, 0.00])
Input parameters:
  external: {direction: [0. 1. 0.],
             name: ConstantElectricField,
             strength: 0.01169603524229075}

Initialize ...

species:
  N:
    name: Nitrogen
    id: f7500608b86eaa90eef8b1d9a670dc53
    Z: 7.0
    valence: 5
    core: 2
    charge: 0.0
    file: /home/fr/fr_fr/fr_ez1021/source/gpaw-setups/gpaw-setups-0.9.20000/N.PBE.gz
    compensation charges: {type: gauss,
                           rc: 0.18,
                           lmax: 2}
    cutoffs: {filter: 1.11,
              core: 0.96}
    valence states:
      #              energy  rcut
      - 2s(2.00)   -18.583   0.603
      - 2p(3.00)    -7.089   0.529
      -  s           8.629   0.603
      -  p          20.123   0.529
      -  d           0.000   0.577
  
    # Using partial waves for N as LCAO basis

  C:
    name: Carbon
    id: 4aa54d4b901d75f77cc0ea3eec22967b
    Z: 6.0
    valence: 4
    core: 2
    charge: 0.0
    file: /home/fr/fr_fr/fr_ez1021/source/gpaw-setups/gpaw-setups-0.9.20000/C.PBE.gz
    compensation charges: {type: gauss,
                           rc: 0.20,
                           lmax: 2}
    cutoffs: {filter: 1.14,
              core: 1.14}
    valence states:
      #              energy  rcut
      - 2s(2.00)   -13.751   0.635
      - 2p(2.00)    -5.284   0.635
      -  s          13.461   0.635
      -  p          21.927   0.635
      -  d           0.000   0.635
  
    # Using partial waves for C as LCAO basis

  O:
    name: Oxygen
    id: 32ecd46bf208036f09c70b0ec9a88b78
    Z: 8.0
    valence: 6
    core: 2
    charge: 0.0
    file: /home/fr/fr_fr/fr_ez1021/source/gpaw-setups/gpaw-setups-0.9.20000/O.PBE.gz
    compensation charges: {type: gauss,
                           rc: 0.21,
                           lmax: 2}
    cutoffs: {filter: 1.17,
              core: 0.83}
    valence states:
      #              energy  rcut
      - 2s(2.00)   -23.961   0.688
      - 2p(4.00)    -9.029   0.598
      -  s           3.251   0.688
      -  p          18.182   0.598
      -  d           0.000   0.619
  
    # Using partial waves for O as LCAO basis

  H:
    name: Hydrogen
    id: d65de229564ff8ea4db303e23b6d1ecf
    Z: 1.0
    valence: 1
    core: 0
    charge: 0.0
[...]
  1. axis:    no    16.000000    0.000000    0.000000    80     0.2000
  2. axis:    no     0.000000   12.000000    0.000000    60     0.2000
  3. axis:    no     0.000000    0.000000   12.000000    60     0.2000

  Lengths:  16.000000  12.000000  12.000000
  Angles:   90.000000  90.000000  90.000000

Effective grid spacing dv^(1/3) = 0.2000

     iter     time        total  log10-change:
                         energy   eigst   dens
iter:   1 21:58:19  -136.037179
iter:   2 21:58:20  -128.935565   +0.55  -0.74
iter:   3 21:58:22  -126.608288   +0.55  -0.93
iter:   4 21:58:23  -126.377906   -0.17  -1.20
iter:   5 21:58:24  -126.379013   -0.66  -1.54
iter:   6 21:58:24  -126.373559c  -1.16  -2.06
iter:   7 21:58:25  -126.372353c  -1.86  -2.41
iter:   8 21:58:26  -126.371497c  -2.28  -2.58
iter:   9 21:58:26  -126.371646c  -2.56  -2.87
iter:  10 21:58:27  -126.371326c  -3.04  -3.05
iter:  11 21:58:27  -126.371486c  -3.45  -3.53
iter:  12 21:58:28  -126.371595c  -3.81  -3.68
iter:  13 21:58:28  -126.371638c  -4.11  -3.96
iter:  14 21:58:29  -126.371681c  -4.46  -4.16c
iter:  15 21:58:29  -126.371533c  -4.83  -4.63c
iter:  16 21:58:29  -126.371352c  -5.07  -4.87c
iter:  17 21:58:30  -126.371635c  -5.31  -5.00c
iter:  18 21:58:30  -126.371663c  -5.62  -5.23c
iter:  19 21:58:31  -126.371717c  -5.88  -5.27c
iter:  20 21:58:31  -126.371741c  -6.16  -5.43c
iter:  21 21:58:31  -126.371673c  -6.49  -5.86c
iter:  22 21:58:32  -126.371662c  -6.76  -5.91c
iter:  23 21:58:32  -126.371668c  -7.00  -6.25c
iter:  24 21:58:32  -126.371670c  -7.25  -6.27c
iter:  25 21:58:33  -126.371675c  -7.52c -6.31c

Converged after 25 iterations.

Dipole moment: (-1.550081, 1.192191, -0.156583) |e|*Ang

Energy contributions relative to reference atoms: (reference = -14805.049268)

Kinetic:       +125.598501
Potential:     -139.019811
External:        -0.016990
XC:            -116.925869
Entropy (-ST):   +0.000000
Local:           +3.765547
Interactions  
 surf:           +0.226946
--------------------------
Free energy:   -126.371675
Extrapolated:  -126.371675

Solvation cavity surface area: 197.61247
Solvation cavity volume: 210.02125
 Band  Eigenvalues  Occupancy
    0    -25.98039    2.00000
    1    -25.78695    2.00000
    2    -24.98677    2.00000
    3    -23.08458    2.00000
    4    -22.16458    2.00000
    5    -20.37367    2.00000
    6    -18.69543    2.00000
    7    -16.79126    2.00000
    8    -15.69883    2.00000
    9    -15.32759    2.00000
   10    -14.91887    2.00000
   11    -14.72479    2.00000
   12    -13.80854    2.00000
   13    -12.96017    2.00000
   14    -12.22595    2.00000
   15    -11.49687    2.00000
   16    -11.25694    2.00000
   17    -10.94330    2.00000
   18    -10.44910    2.00000
   19    -10.33138    2.00000
   20    -10.10661    2.00000
   21     -9.61755    2.00000
   22     -9.28539    2.00000
   23     -8.84598    2.00000
   24     -7.53442    2.00000
   25     -6.81305    2.00000
   26     -6.28463    2.00000
   27     -5.79746    2.00000
   28     -5.63995    2.00000
   29     -5.10901    2.00000
   30     -1.30364    0.00000
   31     -1.13544    0.00000
   32     -0.69498    0.00000
   33     -0.41302    0.00000
   34     -0.26626    0.00000
   35      0.02566    0.00000
   36      0.24285    0.00000
   37      0.51860    0.00000
   38      0.60029    0.00000
   39      1.04249    0.00000

Fermi level: -3.20632

Gap: 3.805 eV
Transition (v -> c):
  (s=0, k=0, n=29, [0.00, 0.00, 0.00]) -> (s=0, k=0, n=30, [0.00, 0.00, 0.00])
Input parameters:
  external: {direction: [0. 0. 1.],
             name: ConstantElectricField,
             strength: 0.014250855737081443}

Initialize ...

species:
  N:
    name: Nitrogen
    id: f7500608b86eaa90eef8b1d9a670dc53
    Z: 7.0
    valence: 5
    core: 2
    charge: 0.0
    file: /home/fr/fr_fr/fr_ez1021/source/gpaw-setups/gpaw-setups-0.9.20000/N.PBE.gz
    compensation charges: {type: gauss,
                           rc: 0.18,
                           lmax: 2}
    cutoffs: {filter: 1.11,
              core: 0.96}
    valence states:
      #              energy  rcut
      - 2s(2.00)   -18.583   0.603
      - 2p(3.00)    -7.089   0.529
      -  s           8.629   0.603
      -  p          20.123   0.529
      -  d           0.000   0.577
  
    # Using partial waves for N as LCAO basis

  C:
    name: Carbon
    id: 4aa54d4b901d75f77cc0ea3eec22967b
    Z: 6.0
    valence: 4
    core: 2
    charge: 0.0
    file: /home/fr/fr_fr/fr_ez1021/source/gpaw-setups/gpaw-setups-0.9.20000/C.PBE.gz
    compensation charges: {type: gauss,
                           rc: 0.20,
                           lmax: 2}
    cutoffs: {filter: 1.14,
              core: 1.14}
    valence states:
      #              energy  rcut
      - 2s(2.00)   -13.751   0.635
      - 2p(2.00)    -5.284   0.635
      -  s          13.461   0.635
      -  p          21.927   0.635
      -  d           0.000   0.635
  
    # Using partial waves for C as LCAO basis

  O:
    name: Oxygen
    id: 32ecd46bf208036f09c70b0ec9a88b78
    Z: 8.0
    valence: 6
    core: 2
    charge: 0.0
    file: /home/fr/fr_fr/fr_ez1021/source/gpaw-setups/gpaw-setups-0.9.20000/O.PBE.gz
    compensation charges: {type: gauss,
                           rc: 0.21,
                           lmax: 2}
    cutoffs: {filter: 1.17,
              core: 0.83}
    valence states:
      #              energy  rcut
      - 2s(2.00)   -23.961   0.688
      - 2p(4.00)    -9.029   0.598
      -  s           3.251   0.688
      -  p          18.182   0.598
      -  d           0.000   0.619
  
    # Using partial waves for O as LCAO basis

  H:
    name: Hydrogen
    id: d65de229564ff8ea4db303e23b6d1ecf
    Z: 1.0
    valence: 1
    core: 0
    charge: 0.0
    file: /home/fr/fr_fr/fr_ez1021/source/gpaw-setups/gpaw-setups-0.9.20000/H.PBE.gz
    compensation charges: {type: gauss,
                           rc: 0.15,
                           lmax: 2}
    cutoffs: {filter: 0.85,
              core: 0.53}
    valence states:
      #              energy  rcut
      - 1s(1.00)    -6.494   0.476
      -  s          20.717   0.476
      -  p           0.000   0.476
  
    # Using partial waves for H as LCAO basis

Reference energy: -14805.049268  # eV

Spin-paired calculation

Convergence criteria:
 Maximum [total energy] change in last 3 cyles: 0.0005 eV / valence electron
 Maximum integral of absolute [dens]ity change: 0.0001 electrons / valence electron
 Maximum integral of absolute [eigenst]ate change: 4e-08 eV^2 / valence electron
 Maximum number of scf [iter]ations: 333
 (Square brackets indicate name in SCF output, whereas a 'c' in
 the SCF output indicates the quantity has converged.)

Symmetries present (total): 1

  ( 1  0  0)
  ( 0  1  0)
  ( 0  0  1)

1 k-point (Gamma)
1 k-point in the irreducible part of the Brillouin zone
       k-points in crystal coordinates                weights
   0:     0.00000000    0.00000000    0.00000000          1/1

Wave functions: Uniform real-space grid
  Kinetic energy operator: 6*3+1=19 point O(h^6) finite-difference Laplacian
  ScaLapack parameters: grid=1x1, blocksize=None
  Wavefunction extrapolation:
    Improved wavefunction reuse through dual PAW basis 

Occupation numbers: # Zero width 

Eigensolver
   Davidson(niter=2) 

Densities:
  Coarse grid: 80*60*60 grid
  Fine grid: 160*120*120 grid
  Total Charge: 0.000000 

Density mixing:
  Method: separate
  Backend: pulay
  Linear mixing parameter: 0.25
  old densities: 3
  Damping of long wavelength oscillations: 1  # (no daming) 

Hamiltonian:
  XC and Coulomb potentials evaluated on a 160*120*120 grid
  Using the PBE Exchange-Correlation functional
  External potential:
    Constant electric field: (0.000, 0.000, 0.014) V/Ang
  Interpolation: tri-quintic (5. degree polynomial)
  Poisson solver: Jacobi weighted FD solver with dielectric and 4 multi-grid levels
    Coarsest grid: 20 x 15 x 15 points
    Stencil: Weighted Finite Difference Operator
      6*3+1=19 point O(h^6) finite-difference Laplacian
      Finite-difference x-derivative with O(h^6) error (6 points)
      Finite-difference y-derivative with O(h^6) error (6 points)
      Finite-difference z-derivative with O(h^6) error (6 points)
    Max iterations: 1000
    Tolerance: 2.000000e-10

  Solvation:
    Cavity:  EffectivePotentialCavity
      Surface Calculator: GradientSurface with 3 nn
      Volume Calculator: KB51Volume
        compressibility: 72.57860092224
        temperature:     298.15
      EffectivePotentialCavity
        Potential: Power12Potential
          u0: 0.18eV
          pbc_cutoff: 1e-06
          tiny: 1e-10
        temperature: 298.15K    Dielectric:
      Type: LinearDielectric
      Solvent dielectric constant: 1.77    Interaction: SurfaceInteraction
      subscript: surf
      Surface_tension: 0.0011484376791625194 eV/(Angstrom^2)
XC parameters: PBE with 2 nearest neighbor stencil

Memory estimate:
  Process memory now: 302.98 MiB
  Calculator: 47.89 MiB
    Density: 4.64 MiB
      Arrays: 3.35 MiB
      Localized functions: 0.55 MiB
      Mixer: 0.73 MiB
    Hamiltonian: 32.71 MiB
      Arrays: 2.19 MiB
      XC: 0.00 MiB
      Poisson: 2.51 MiB
      vbar: 0.04 MiB
      Solvation: 27.97 MiB
    Wavefunctions: 10.55 MiB
      Arrays psit_nG: 4.88 MiB
      Eigensolver: 5.61 MiB
      Projections: 0.00 MiB
      Projectors: 0.06 MiB

Total number of cores used: 16
Domain decomposition: 4 x 2 x 2

Number of atoms: 20
Number of atomic orbitals: 53
Number of bands in calculation: 40
Number of valence electrons: 60
Bands to converge: occupied

... initialized

Initializing position-dependent things.

Solvation position-dependent initialization:
  Atomic radii for Power12Potential:
    Type    Radius   No. of atoms
       H     1.090     9
       O     1.520     2
       N     1.550     3
       C     1.700     6

Density initialized from atomic densities
Creating initial wave functions:
  40 bands from LCAO basis set

        .--------------------------------------.  
       /|                                      |  
      / |                                      |  
     /  |                                      |  
    /   |                                      |  
   /    |                                      |  
  /     |                                      |  
 *      |                                      |  
 |      |            H                         |  
 |      |       H           H                  |  
 |      |        C  N    H  C   O              |  
 |      |             C  C   H C               |  
 |      |        N       HH N   O              |  
 |      |           C        H                 |  
 |      |            H                         |  
 |      .--------------------------------------.  
 |     /                                      /   
 |    /                                      /    
 |   /                                      /     
 |  /                                      /      
 | /                                      /       
 |/                                      /        
 *--------------------------------------*         

Positions:
   0 N      9.478488    6.807768    5.022263    ( 0.0000,  0.0000,  0.0000)
   1 C      9.607925    6.133374    6.348833    ( 0.0000,  0.0000,  0.0000)
   2 C     11.027853    5.502746    6.419918    ( 0.0000,  0.0000,  0.0000)
   3 O     11.630870    5.359498    5.315263    ( 0.0000,  0.0000,  0.0000)
   4 H      9.750950    7.795747    5.065413    ( 0.0000,  0.0000,  0.0000)
   5 H      8.517581    6.760338    4.650161    ( 0.0000,  0.0000,  0.0000)
   6 H      9.502887    6.898236    7.125477    ( 0.0000,  0.0000,  0.0000)
   7 C      8.511164    5.049828    6.502018    ( 0.0000,  0.0000,  0.0000)
   8 C      7.143139    5.533343    6.150784    ( 0.0000,  0.0000,  0.0000)
   9 N      6.297404    6.202329    7.014359    ( 0.0000,  0.0000,  0.0000)
  10 C      6.473934    5.537899    4.938606    ( 0.0000,  0.0000,  0.0000)
  11 C      5.190189    6.571534    6.318070    ( 0.0000,  0.0000,  0.0000)
  12 N      5.263151    6.192930    5.046507    ( 0.0000,  0.0000,  0.0000)
  13 H      8.550331    4.681011    7.535308    ( 0.0000,  0.0000,  0.0000)
  14 H      8.756824    4.204253    5.843235    ( 0.0000,  0.0000,  0.0000)
  15 H      6.800548    5.091833    4.002464    ( 0.0000,  0.0000,  0.0000)
  16 H      4.369130    7.114206    6.776620    ( 0.0000,  0.0000,  0.0000)
  17 H      6.475496    6.393583    7.997536    ( 0.0000,  0.0000,  0.0000)
  18 O     11.433889    5.177183    7.566117    ( 0.0000,  0.0000,  0.0000)
  19 H     10.139909    6.326017    4.382698    ( 0.0000,  0.0000,  0.0000)

Unit cell:
           periodic     x           y           z      points  spacing
  1. axis:    no    16.000000    0.000000    0.000000    80     0.2000
  2. axis:    no     0.000000   12.000000    0.000000    60     0.2000
  3. axis:    no     0.000000    0.000000   12.000000    60     0.2000

  Lengths:  16.000000  12.000000  12.000000
  Angles:   90.000000  90.000000  90.000000

Effective grid spacing dv^(1/3) = 0.2000

     iter     time        total  log10-change:
                         energy   eigst   dens
iter:   1 21:58:36  -136.012451
iter:   2 21:58:37  -128.913679   +0.55  -0.74
iter:   3 21:58:38  -126.589635   +0.55  -0.93
iter:   4 21:58:39  -126.359064   -0.17  -1.20
iter:   5 21:58:40  -126.360040   -0.67  -1.54
iter:   6 21:58:41  -126.354552c  -1.16  -2.06
iter:   7 21:58:41  -126.353348c  -1.87  -2.41
iter:   8 21:58:42  -126.352502c  -2.28  -2.58
iter:   9 21:58:43  -126.352659c  -2.56  -2.87
iter:  10 21:58:43  -126.352336c  -3.05  -3.05
iter:  11 21:58:44  -126.352498c  -3.46  -3.53
iter:  12 21:58:44  -126.352607c  -3.81  -3.68
iter:  13 21:58:45  -126.352649c  -4.12  -3.96
iter:  14 21:58:45  -126.352693c  -4.47  -4.16c
iter:  15 21:58:46  -126.352544c  -4.83  -4.63c
iter:  16 21:58:46  -126.352365c  -5.08  -4.87c
iter:  17 21:58:46  -126.352647c  -5.31  -5.00c
iter:  18 21:58:47  -126.352679c  -5.62  -5.22c
iter:  19 21:58:47  -126.352731c  -5.88  -5.26c
iter:  20 21:58:47  -126.352752c  -6.17  -5.42c
iter:  21 21:58:48  -126.352683c  -6.51  -5.85c
iter:  22 21:58:48  -126.352672c  -6.77  -5.90c
iter:  23 21:58:49  -126.352679c  -7.01  -6.27c
iter:  24 21:58:49  -126.352681c  -7.26  -6.27c
iter:  25 21:58:49  -126.352685c  -7.53c -6.27c

Converged after 25 iterations.

Dipole moment: (-1.546424, 1.178184, -0.137981) |e|*Ang

Energy contributions relative to reference atoms: (reference = -14805.049268)

Kinetic:       +125.600011
Potential:     -139.025074
External:        +0.001966
XC:            -116.922002
Entropy (-ST):   +0.000000
Local:           +3.765468
Interactions  
 surf:           +0.226946
--------------------------
Free energy:   -126.352685
Extrapolated:  -126.352685

Solvation cavity surface area: 197.61247
Solvation cavity volume: 210.02125
 Band  Eigenvalues  Occupancy
    0    -25.98015    2.00000
    1    -25.78876    2.00000
    2    -24.98601    2.00000
    3    -23.07415    2.00000
    4    -22.16515    2.00000
    5    -20.36872    2.00000
    6    -18.69532    2.00000
    7    -16.78919    2.00000
    8    -15.69607    2.00000
    9    -15.33018    2.00000
   10    -14.92836    2.00000
   11    -14.73408    2.00000
   12    -13.80779    2.00000
   13    -12.95995    2.00000
   14    -12.22292    2.00000
   15    -11.49534    2.00000
   16    -11.25631    2.00000
   17    -10.93740    2.00000
   18    -10.45168    2.00000
   19    -10.32493    2.00000
   20    -10.09892    2.00000
   21     -9.60679    2.00000
   22     -9.27385    2.00000
   23     -8.83756    2.00000
   24     -7.53586    2.00000
   25     -6.82067    2.00000
   26     -6.28408    2.00000
   27     -5.78608    2.00000
   28     -5.63524    2.00000
   29     -5.09409    2.00000
   30     -1.32858    0.00000
   31     -1.13674    0.00000
   32     -0.68469    0.00000
   33     -0.41610    0.00000
   34     -0.27648    0.00000
   35      0.03179    0.00000
   36      0.24241    0.00000
   37      0.51182    0.00000
   38      0.60667    0.00000
   39      1.04257    0.00000

Fermi level: -3.21133

Gap: 3.766 eV
Transition (v -> c):
  (s=0, k=0, n=29, [0.00, 0.00, 0.00]) -> (s=0, k=0, n=30, [0.00, 0.00, 0.00])
Input parameters:
  external: None

Timing:                              incl.     excl.
-----------------------------------------------------------
Hamiltonian:                        73.804    12.884   2.1% ||
 Atomic:                             1.142     0.021   0.0% |
  XC Correction:                     1.121     1.121   0.2% |
 Hartree integrate/restrict:         0.080     0.080   0.0% |
 Initialize Hamiltonian:             1.034     1.034   0.2% |
 Poisson:                           57.122    57.122   9.5% |---|
 XC 3D grid:                         1.515     1.515   0.3% |
 vbar:                               0.026     0.026   0.0% |
LCAO initialization:                10.206     7.100   1.2% |
 LCAO eigensolver:                   0.861     0.003   0.0% |
  Calculate projections:             0.001     0.001   0.0% |
  DenseAtomicCorrection:             0.001     0.001   0.0% |
  Distribute overlap matrix:         0.777     0.777   0.1% |
  Orbital Layouts:                   0.029     0.029   0.0% |
  Potential matrix:                  0.049     0.049   0.0% |
 LCAO to grid:                       0.262     0.262   0.0% |
 Set positions (LCAO WFS):           1.983     1.657   0.3% |
  Basic WFS set positions:           0.024     0.024   0.0% |
  Basis functions set positions:     0.004     0.004   0.0% |
  P tci:                             0.011     0.011   0.0% |
  ST tci:                            0.097     0.097   0.0% |
  mktci:                             0.190     0.190   0.0% |
SCF-cycle:                         507.889     0.691   0.1% |
 Davidson:                         185.455    68.683  11.4% |----|
  Apply hamiltonian:                16.235    16.235   2.7% ||
  Subspace diag:                    25.662     0.104   0.0% |
   calc_h_matrix:                   17.368     2.362   0.4% |
    Apply hamiltonian:              15.006    15.006   2.5% ||
   diagonalize:                      2.882     2.882   0.5% |
   rotate_psi:                       5.308     5.308   0.9% |
  calc. matrices:                   62.254    25.190   4.2% |-|
   Apply hamiltonian:               37.064    37.064   6.2% |-|
  diagonalize:                       1.838     1.838   0.3% |
  rotate_psi:                       10.785    10.785   1.8% ||
 Density:                            6.319     0.018   0.0% |
  Atomic density matrices:           1.427     1.427   0.2% |
  Mix:                               3.715     3.715   0.6% |
  Multipole moments:                 0.256     0.256   0.0% |
  Pseudo density:                    0.902     0.891   0.1% |
   Symmetrize density:               0.012     0.012   0.0% |
 Hamiltonian:                      313.151    21.698   3.6% ||
  Atomic:                           27.103     0.535   0.1% |
   XC Correction:                   26.568    26.568   4.4% |-|
  Hartree integrate/restrict:        1.593     1.593   0.3% |
  Poisson:                         225.751   225.751  37.6% |--------------|
  XC 3D grid:                       36.626    36.626   6.1% |-|
  vbar:                              0.381     0.381   0.1% |
 Orthonormalize:                     2.272     0.004   0.0% |
  calc_s_matrix:                     0.059     0.059   0.0% |
  inverse-cholesky:                  2.053     2.053   0.3% |
  projections:                       0.001     0.001   0.0% |
  rotate_psi_s:                      0.154     0.154   0.0% |
Set symmetry:                        0.030     0.030   0.0% |
Other:                               8.712     8.712   1.5% ||
-----------------------------------------------------------
Total:                                       600.640 100.0%

Memory usage: 302.98 MiB
Date: Fri Oct  6 21:58:49 2023
