
  ___ ___ ___ _ _ _  
 |   |   |_  | | | | 
 | | | | | . | | | | 
 |__ |  _|___|_____|  23.9.2b1
 |___|_|             

User:   fr_ez1021@n0709
Date:   Fri Oct  6 21:35:56 2023
Arch:   x86_64
Pid:    365748
CWD:    /lustre/home/fr/fr_fr/fr_ez1021/sims/amino_acids_publish/scripts
Python: 3.8.3
gpaw:   /home/fr/fr_fr/fr_ez1021/source/origin/gpaw/gpaw (68657f1768)
_gpaw:  /home/fr/fr_fr/fr_ez1021/source/origin/gpaw/build/lib.linux-x86_64-3.8/
        _gpaw.cpython-38-x86_64-linux-gnu.so (d6c5f22bb1)
ase:    /home/fr/fr_fr/fr_ez1021/source/origin/ase/ase (version 3.23.0b1-4bd916e410)
numpy:  /opt/bwhpc/common/numlib/python_numpy/1.19.0_python-3.8.3/lib/python3.8/site-packages/numpy-1.19.0-py3.8-linux-x86_64.egg/numpy (version 1.19.0)
scipy:  /opt/bwhpc/common/numlib/python_scipy/1.5.0_numpy-1.19.0_python-3.8.3/lib/python3.8/site-packages/scipy-1.5.0-py3.8-linux-x86_64.egg/scipy (version 1.5.0)
libxc:  5.1.7
units:  Angstrom and eV
cores: 16
OpenMP: False
OMP_NUM_THREADS: 1

Input parameters:
  mode: fd
  xc: PBE

Implicit solvation parameters:
Cavity:  EffectivePotentialCavity
  Surface Calculator: GradientSurface with 3 nn
  Volume Calculator: KB51Volume
    compressibility: 72.57860092224
    temperature:     298.15
  EffectivePotentialCavity
    Potential: Power12Potential
      u0: 0.18eV
      pbc_cutoff: 1e-06
      tiny: 1e-10
    temperature: 298.15K
Dielectric:
  Type: LinearDielectric
  Solvent dielectric constant: 1.77
Interaction: SurfaceInteraction
  subscript: surf
  Surface_tension: 0.0011484376791625194 eV/(Angstrom^2)

System changes: positions, numbers, cell, pbc, initial_charges, initial_magmoms 

Initialize ...

species:
  N:
    name: Nitrogen
    id: f7500608b86eaa90eef8b1d9a670dc53
    Z: 7.0
    valence: 5
    core: 2
    charge: 0.0
    file: /home/fr/fr_fr/fr_ez1021/source/gpaw-setups/gpaw-setups-0.9.20000/N.PBE.gz
    compensation charges: {type: gauss,
                           rc: 0.18,
                           lmax: 2}
    cutoffs: {filter: 1.11,
              core: 0.96}
    valence states:
      #              energy  rcut
      - 2s(2.00)   -18.583   0.603
      - 2p(3.00)    -7.089   0.529
      -  s           8.629   0.603
      -  p          20.123   0.529
      -  d           0.000   0.577
  
    # Using partial waves for N as LCAO basis

  C:
    name: Carbon
    id: 4aa54d4b901d75f77cc0ea3eec22967b
    Z: 6.0
    valence: 4
    core: 2
    charge: 0.0
    file: /home/fr/fr_fr/fr_ez1021/source/gpaw-setups/gpaw-setups-0.9.20000/C.PBE.gz
    compensation charges: {type: gauss,
                           rc: 0.20,
                           lmax: 2}
    cutoffs: {filter: 1.14,
              core: 1.14}
    valence states:
      #              energy  rcut
      - 2s(2.00)   -13.751   0.635
      - 2p(2.00)    -5.284   0.635
      -  s          13.461   0.635
      -  p          21.927   0.635
      -  d           0.000   0.635
  
    # Using partial waves for C as LCAO basis

  O:
    name: Oxygen
    id: 32ecd46bf208036f09c70b0ec9a88b78
    Z: 8.0
    valence: 6
    core: 2
    charge: 0.0
    file: /home/fr/fr_fr/fr_ez1021/source/gpaw-setups/gpaw-setups-0.9.20000/O.PBE.gz
    compensation charges: {type: gauss,
                           rc: 0.21,
                           lmax: 2}
    cutoffs: {filter: 1.17,
              core: 0.83}
    valence states:
      #              energy  rcut
      - 2s(2.00)   -23.961   0.688
      - 2p(4.00)    -9.029   0.598
      -  s           3.251   0.688
      -  p          18.182   0.598
      -  d           0.000   0.619
  
    # Using partial waves for O as LCAO basis

  H:
    name: Hydrogen
    id: d65de229564ff8ea4db303e23b6d1ecf
    Z: 1.0
    valence: 1
    core: 0
    charge: 0.0
    file: /home/fr/fr_fr/fr_ez1021/source/gpaw-setups/gpaw-setups-0.9.20000/H.PBE.gz
    compensation charges: {type: gauss,
                           rc: 0.15,
                           lmax: 2}
    cutoffs: {filter: 0.85,
              core: 0.53}
    valence states:
      #              energy  rcut
      - 1s(1.00)    -6.494   0.476
      -  s          20.717   0.476
      -  p           0.000   0.476
  
    # Using partial waves for H as LCAO basis

  S:
    name: Sulfur
    id: ca434db9faa07220b7a1d8cb6886b7a9
    Z: 16.0
    valence: 6
    core: 10
    charge: 0.0
    file: /home/fr/fr_fr/fr_ez1021/source/gpaw-setups/gpaw-setups-0.9.20000/S.PBE.gz
    compensation charges: {type: gauss,
                           rc: 0.24,
                           lmax: 2}
    cutoffs: {filter: 1.77,
              core: 1.66}
    valence states:
      #              energy  rcut
      - 3s(2.00)   -17.254   0.974
      - 3p(4.00)    -7.008   0.979
      -  s           9.957   0.974
      -  p          20.203   0.979
      -  d           0.000   0.900
  
    # Using partial waves for S as LCAO basis

Reference energy: -21696.578366  # eV

Spin-paired calculation

Convergence criteria:
 Maximum [total energy] change in last 3 cyles: 0.0005 eV / valence electron
 Maximum integral of absolute [dens]ity change: 0.0001 electrons / valence electron
 Maximum integral of absolute [eigenst]ate change: 4e-08 eV^2 / valence electron
 Maximum number of scf [iter]ations: 333
 (Square brackets indicate name in SCF output, whereas a 'c' in
 the SCF output indicates the quantity has converged.)

Symmetries present (total): 1

  ( 1  0  0)
  ( 0  1  0)
  ( 0  0  1)

1 k-point (Gamma)
1 k-point in the irreducible part of the Brillouin zone
       k-points in crystal coordinates                weights
   0:     0.00000000    0.00000000    0.00000000          1/1

Wave functions: Uniform real-space grid
  Kinetic energy operator: 6*3+1=19 point O(h^6) finite-difference Laplacian
  ScaLapack parameters: grid=1x1, blocksize=None
  Wavefunction extrapolation:
    Improved wavefunction reuse through dual PAW basis 

Occupation numbers: # Zero width 

Eigensolver
   Davidson(niter=2) 

Densities:
  Coarse grid: 68*68*64 grid
  Fine grid: 136*136*128 grid
  Total Charge: 0.000000 

Density mixing:
  Method: separate
  Backend: pulay
  Linear mixing parameter: 0.25
  old densities: 3
  Damping of long wavelength oscillations: 1  # (no daming) 

Hamiltonian:
  XC and Coulomb potentials evaluated on a 136*136*128 grid
  Using the PBE Exchange-Correlation functional
  Interpolation: tri-quintic (5. degree polynomial)
  Poisson solver: Jacobi weighted FD solver with dielectric and 4 multi-grid levels
    Coarsest grid: 17 x 17 x 16 points
    Stencil: Weighted Finite Difference Operator
      6*3+1=19 point O(h^6) finite-difference Laplacian
      Finite-difference x-derivative with O(h^6) error (6 points)
      Finite-difference y-derivative with O(h^6) error (6 points)
      Finite-difference z-derivative with O(h^6) error (6 points)
    Max iterations: 1000
    Tolerance: 2.000000e-10

  Solvation:
    Cavity:  EffectivePotentialCavity
      Surface Calculator: GradientSurface with 3 nn
      Volume Calculator: KB51Volume
        compressibility: 72.57860092224
        temperature:     298.15
      EffectivePotentialCavity
        Potential: Power12Potential
          u0: 0.18eV
          pbc_cutoff: 1e-06
          tiny: 1e-10
        temperature: 298.15K    Dielectric:
      Type: LinearDielectric
      Solvent dielectric constant: 1.77    Interaction: SurfaceInteraction
      subscript: surf
      Surface_tension: 0.0011484376791625194 eV/(Angstrom^2)
XC parameters: PBE with 2 nearest neighbor stencil

Memory estimate:
  Process memory now: 150.12 MiB
  Calculator: 48.41 MiB
    Density: 4.81 MiB
      Arrays: 3.44 MiB
      Localized functions: 0.62 MiB
      Mixer: 0.75 MiB
    Hamiltonian: 33.57 MiB
      Arrays: 2.25 MiB
      XC: 0.00 MiB
      Poisson: 2.57 MiB
      vbar: 0.05 MiB
      Solvation: 28.69 MiB
    Wavefunctions: 10.04 MiB
      Arrays psit_nG: 4.62 MiB
      Eigensolver: 5.35 MiB
      Projections: 0.00 MiB
      Projectors: 0.07 MiB

Total number of cores used: 16
Domain decomposition: 2 x 4 x 2

Number of atoms: 20
Number of atomic orbitals: 47
Number of bands in calculation: 37
Number of valence electrons: 54
Bands to converge: occupied

... initialized

Initializing position-dependent things.

Solvation position-dependent initialization:
  Atomic radii for Power12Potential:
    Type    Radius   No. of atoms
       H     1.090     11
       O     1.520     2
       N     1.550     1
       C     1.700     5
       S     1.800     1

Density initialized from atomic densities
Creating initial wave functions:
  37 bands from LCAO basis set

         .--------------------------------.  
        /|                                |  
       / |                                |  
      /  |                                |  
     /   |                                |  
    /    |                                |  
   /     |                                |  
  /      |                                |  
 *       |                 O              |  
 |       |           H                    |  
 |       |     HH     H    C              |  
 |       |       C   H C     O            |  
 |       |                                |  
 |       |     S     H NHH                |  
 |       |   H C  H                       |  
 |       |                                |  
 |       .-----H--------------------------.  
 |      /                                /   
 |     /                                /    
 |    /                                /     
 |   /                                /      
 |  /                                /       
 | /                                /        
 |/                                /         
 *--------------------------------*          

Positions:
   0 N      7.219543    8.036149    5.245440    ( 0.0000,  0.0000,  0.0000)
   1 C      7.116887    8.287450    6.724261    ( 0.0000,  0.0000,  0.0000)
   2 C      8.543175    8.439076    7.324548    ( 0.0000,  0.0000,  0.0000)
   3 O      8.593538    8.871119    8.508715    ( 0.0000,  0.0000,  0.0000)
   4 H      7.384192    8.904248    4.724708    ( 0.0000,  0.0000,  0.0000)
   5 H      6.336610    7.604204    4.894475    ( 0.0000,  0.0000,  0.0000)
   6 H      6.576375    9.234463    6.859775    ( 0.0000,  0.0000,  0.0000)
   7 C      6.355578    7.148881    7.410475    ( 0.0000,  0.0000,  0.0000)
   8 C      4.848581    7.106648    7.156808    ( 0.0000,  0.0000,  0.0000)
   9 S      4.317800    6.719007    5.447589    ( 0.0000,  0.0000,  0.0000)
  10 C      4.717119    4.952703    5.327603    ( 0.0000,  0.0000,  0.0000)
  11 H      6.499024    7.286406    8.491953    ( 0.0000,  0.0000,  0.0000)
  12 H      6.825970    6.186144    7.155106    ( 0.0000,  0.0000,  0.0000)
  13 H      4.401221    8.090348    7.359331    ( 0.0000,  0.0000,  0.0000)
  14 H      4.370491    6.374212    7.823003    ( 0.0000,  0.0000,  0.0000)
  15 H      5.775452    4.767345    5.545318    ( 0.0000,  0.0000,  0.0000)
  16 H      4.508324    4.661367    4.291285    ( 0.0000,  0.0000,  0.0000)
  17 H      4.084754    4.365537    6.005419    ( 0.0000,  0.0000,  0.0000)
  18 O      9.515246    8.090623    6.593766    ( 0.0000,  0.0000,  0.0000)
  19 H      8.023683    7.415353    5.070280    ( 0.0000,  0.0000,  0.0000)

Unit cell:
           periodic     x           y           z      points  spacing
  1. axis:    no    13.600000    0.000000    0.000000    68     0.2000
  2. axis:    no     0.000000   13.600000    0.000000    68     0.2000
  3. axis:    no     0.000000    0.000000   12.800000    64     0.2000

  Lengths:  13.600000  13.600000  12.800000
  Angles:   90.000000  90.000000  90.000000

Effective grid spacing dv^(1/3) = 0.2000

     iter     time        total  log10-change:
                         energy   eigst   dens
iter:   1 21:36:00  -121.568362
iter:   2 21:36:01  -114.356704   +0.55  -0.70
iter:   3 21:36:02  -112.389532   +0.60  -0.90
iter:   4 21:36:03  -112.123583   -0.22  -1.15
iter:   5 21:36:04  -112.118908   -0.63  -1.53
iter:   6 21:36:05  -112.115557c  -1.09  -2.07
iter:   7 21:36:06  -112.113292c  -1.80  -2.29
iter:   8 21:36:06  -112.111580c  -2.18  -2.46
iter:   9 21:36:07  -112.110833c  -2.61  -2.92
iter:  10 21:36:07  -112.111056c  -3.09  -3.02
iter:  11 21:36:08  -112.111158c  -3.49  -3.54
iter:  12 21:36:08  -112.111180c  -3.89  -3.75
iter:  13 21:36:09  -112.111154c  -4.19  -3.89
iter:  14 21:36:09  -112.111125c  -4.53  -4.14c
iter:  15 21:36:10  -112.111122c  -4.82  -4.37c
iter:  16 21:36:10  -112.111149c  -5.18  -4.77c
iter:  17 21:36:11  -112.111129c  -5.47  -5.03c
iter:  18 21:36:11  -112.111046c  -5.76  -5.23c
iter:  19 21:36:11  -112.111120c  -6.00  -5.55c
iter:  20 21:36:12  -112.111149c  -6.23  -5.67c
iter:  21 21:36:12  -112.111127c  -6.54  -5.78c
iter:  22 21:36:13  -112.111112c  -6.91  -5.90c
iter:  23 21:36:13  -112.111123c  -7.18  -6.14c
iter:  24 21:36:13  -112.111129c  -7.45c -6.22c

Converged after 24 iterations.

Dipole moment: (-1.808560, -0.769524, -1.455676) |e|*Ang

Energy contributions relative to reference atoms: (reference = -21696.578366)

Kinetic:       +110.880756
Potential:     -123.607104
External:        +0.000000
XC:            -102.222361
Entropy (-ST):   +0.000000
Local:           +2.612979
Interactions  
 surf:           +0.224600
--------------------------
Free energy:   -112.111129
Extrapolated:  -112.111129

Solvation cavity surface area: 195.56978
Solvation cavity volume: 208.14329
 Band  Eigenvalues  Occupancy
    0    -25.50739    2.00000
    1    -24.77167    2.00000
    2    -22.82039    2.00000
    3    -20.92170    2.00000
    4    -19.60161    2.00000
    5    -17.92405    2.00000
    6    -16.32322    2.00000
    7    -15.17274    2.00000
    8    -14.75020    2.00000
    9    -14.26617    2.00000
   10    -12.89865    2.00000
   11    -12.25015    2.00000
   12    -11.40141    2.00000
   13    -11.20597    2.00000
   14    -11.05965    2.00000
   15    -10.52224    2.00000
   16    -10.14268    2.00000
   17     -9.84995    2.00000
   18     -9.57161    2.00000
   19     -9.06904    2.00000
   20     -9.02163    2.00000
   21     -8.50003    2.00000
   22     -8.09415    2.00000
   23     -6.15709    2.00000
   24     -5.54828    2.00000
   25     -5.34780    2.00000
   26     -4.89094    2.00000
   27     -1.15576    0.00000
   28     -1.00043    0.00000
   29     -0.49023    0.00000
   30     -0.27503    0.00000
   31     -0.12915    0.00000
   32     -0.03205    0.00000
   33      0.21486    0.00000
   34      0.61726    0.00000
   35      0.70345    0.00000
   36      0.91454    0.00000

Fermi level: -3.02335

Gap: 3.735 eV
Transition (v -> c):
  (s=0, k=0, n=26, [0.00, 0.00, 0.00]) -> (s=0, k=0, n=27, [0.00, 0.00, 0.00])
Input parameters:
  external: {direction: [1. 0. 0.],
             name: ConstantElectricField,
             strength: 0.01}

Initialize ...

species:
  N:
    name: Nitrogen
    id: f7500608b86eaa90eef8b1d9a670dc53
    Z: 7.0
    valence: 5
    core: 2
    charge: 0.0
    file: /home/fr/fr_fr/fr_ez1021/source/gpaw-setups/gpaw-setups-0.9.20000/N.PBE.gz
    compensation charges: {type: gauss,
                           rc: 0.18,
                           lmax: 2}
    cutoffs: {filter: 1.11,
              core: 0.96}
    valence states:
      #              energy  rcut
      - 2s(2.00)   -18.583   0.603
      - 2p(3.00)    -7.089   0.529
      -  s           8.629   0.603
      -  p          20.123   0.529
      -  d           0.000   0.577
  
    # Using partial waves for N as LCAO basis

  C:
    name: Carbon
    id: 4aa54d4b901d75f77cc0ea3eec22967b
    Z: 6.0
    valence: 4
    core: 2
    charge: 0.0
    file: /home/fr/fr_fr/fr_ez1021/source/gpaw-setups/gpaw-setups-0.9.20000/C.PBE.gz
    compensation charges: {type: gauss,
                           rc: 0.20,
                           lmax: 2}
    cutoffs: {filter: 1.14,
              core: 1.14}
    valence states:
      #              energy  rcut
      - 2s(2.00)   -13.751   0.635
      - 2p(2.00)    -5.284   0.635
      -  s          13.461   0.635
      -  p          21.927   0.635
      -  d           0.000   0.635
  
    # Using partial waves for C as LCAO basis

  O:
    name: Oxygen
    id: 32ecd46bf208036f09c70b0ec9a88b78
    Z: 8.0
    valence: 6
    core: 2
    charge: 0.0
    file: /home/fr/fr_fr/fr_ez1021/source/gpaw-setups/gpaw-setups-0.9.20000/O.PBE.gz
    compensation charges: {type: gauss,
                           rc: 0.21,
                           lmax: 2}
    cutoffs: {filter: 1.17,
              core: 0.83}
    valence states:
      #              energy  rcut
      - 2s(2.00)   -23.961   0.688
      - 2p(4.00)    -9.029   0.598
      -  s           3.251   0.688
      -  p          18.182   0.598
      -  d           0.000   0.619
  
    # Using partial waves for O as LCAO basis

  H:
    name: Hydrogen
    id: d65de229564ff8ea4db303e23b6d1ecf
    Z: 1.0
    valence: 1
    core: 0
    charge: 0.0
    file: /home/fr/fr_fr/fr_ez1021/source/gpaw-setups/gpaw-setups-0.9.20000/H.PBE.gz
    compensation charges: {type: gauss,
                           rc: 0.15,
                           lmax: 2}
    cutoffs: {filter: 0.85,
              core: 0.53}
    valence states:
      #              energy  rcut
      - 1s(1.00)    -6.494   0.476
      -  s          20.717   0.476
      -  p           0.000   0.476
  
    # Using partial waves for H as LCAO basis

  S:
    name: Sulfur
    id: ca434db9faa07220b7a1d8cb6886b7a9
    Z: 16.0
    valence: 6
    core: 10
    charge: 0.0
    file: /home/fr/fr_fr/fr_ez1021/source/gpaw-setups/gpaw-setups-0.9.20000/S.PBE.gz
    compensation charges: {type: gauss,
                           rc: 0.24,
                           lmax: 2}
    cutoffs: {filter: 1.77,
              core: 1.66}
    valence states:
      #              energy  rcut
      - 3s(2.00)   -17.254   0.974
      - 3p(4.00)    -7.008   0.979
      -  s           9.957   0.974
      -  p          20.203   0.979
      -  d           0.000   0.900
  
    # Using partial waves for S as LCAO basis

Reference energy: -21696.578366  # eV

Spin-paired calculation

Convergence criteria:
 Maximum [total energy] change in last 3 cyles: 0.0005 eV / valence electron
 Maximum integral of absolute [dens]ity change: 0.0001 electrons / valence electron
 Maximum integral of absolute [eigenst]ate change: 4e-08 eV^2 / valence electron
 Maximum number of scf [iter]ations: 333
 (Square brackets indicate name in SCF output, whereas a 'c' in
 the SCF output indicates the quantity has converged.)

Symmetries present (total): 1

  ( 1  0  0)
  ( 0  1  0)
  ( 0  0  1)

1 k-point (Gamma)
1 k-point in the irreducible part of the Brillouin zone
       k-points in crystal coordinates                weights
   0:     0.00000000    0.00000000    0.00000000          1/1

Wave functions: Uniform real-space grid
  Kinetic energy operator: 6*3+1=19 point O(h^6) finite-difference Laplacian
  ScaLapack parameters: grid=1x1, blocksize=None
  Wavefunction extrapolation:
    Improved wavefunction reuse through dual PAW basis 

Occupation numbers: # Zero width 

Eigensolver
   Davidson(niter=2) 

Densities:
  Coarse grid: 68*68*64 grid
  Fine grid: 136*136*128 grid
  Total Charge: 0.000000 

Density mixing:
  Method: separate
  Backend: pulay
  Linear mixing parameter: 0.25
  old densities: 3
  Damping of long wavelength oscillations: 1  # (no daming) 

Hamiltonian:
  XC and Coulomb potentials evaluated on a 136*136*128 grid
  Using the PBE Exchange-Correlation functional
  External potential:
    Constant electric field: (0.010, 0.000, 0.000) V/Ang
  Interpolation: tri-quintic (5. degree polynomial)
  Poisson solver: Jacobi weighted FD solver with dielectric and 4 multi-grid levels
    Coarsest grid: 17 x 17 x 16 points
    Stencil: Weighted Finite Difference Operator
      6*3+1=19 point O(h^6) finite-difference Laplacian
      Finite-difference x-derivative with O(h^6) error (6 points)
      Finite-difference y-derivative with O(h^6) error (6 points)
      Finite-difference z-derivative with O(h^6) error (6 points)
    Max iterations: 1000
    Tolerance: 2.000000e-10

  Solvation:
    Cavity:  EffectivePotentialCavity
      Surface Calculator: GradientSurface with 3 nn
      Volume Calculator: KB51Volume
        compressibility: 72.57860092224
        temperature:     298.15
      EffectivePotentialCavity
        Potential: Power12Potential
          u0: 0.18eV
          pbc_cutoff: 1e-06
          tiny: 1e-10
        temperature: 298.15K    Dielectric:
      Type: LinearDielectric
      Solvent dielectric constant: 1.77    Interaction: SurfaceInteraction
      subscript: surf
      Surface_tension: 0.0011484376791625194 eV/(Angstrom^2)
XC parameters: PBE with 2 nearest neighbor stencil

Memory estimate:
  Process memory now: 240.53 MiB
  Calculator: 48.41 MiB
    Density: 4.81 MiB
      Arrays: 3.44 MiB
      Localized functions: 0.62 MiB
      Mixer: 0.75 MiB
    Hamiltonian: 33.57 MiB
      Arrays: 2.25 MiB
      XC: 0.00 MiB
      Poisson: 2.57 MiB
      vbar: 0.05 MiB
      Solvation: 28.69 MiB
    Wavefunctions: 10.04 MiB
      Arrays psit_nG: 4.62 MiB
      Eigensolver: 5.35 MiB
      Projections: 0.00 MiB
      Projectors: 0.07 MiB

Total number of cores used: 16
Domain decomposition: 2 x 4 x 2

Number of atoms: 20
Number of atomic orbitals: 47
Number of bands in calculation: 37
Number of valence electrons: 54
Bands to converge: occupied

... initialized

Initializing position-dependent things.

Solvation position-dependent initialization:
  Atomic radii for Power12Potential:
    Type    Radius   No. of atoms
       H     1.090     11
       O     1.520     2
       N     1.550     1
       C     1.700     5
       S     1.800     1

Density initialized from atomic densities
Creating initial wave functions:
  37 bands from LCAO basis set

         .--------------------------------.  
        /|                                |  
       / |                                |  
      /  |                                |  
     /   |                                |  
    /    |                                |  
   /     |                                |  
  /      |                                |  
 *       |                 O              |  
 |       |           H                    |  
 |       |     HH     H    C              |  
 |       |       C   H C     O            |  
 |       |                                |  
 |       |     S     H NHH                |  
 |       |   H C  H                       |  
 |       |                                |  
 |       .-----H--------------------------.  
 |      /                                /   
 |     /                                /    
 |    /                                /     
 |   /                                /      
 |  /                                /       
 | /                                /        
 |/                                /         
 *--------------------------------*          

Positions:
   0 N      7.219543    8.036149    5.245440    ( 0.0000,  0.0000,  0.0000)
   1 C      7.116887    8.287450    6.724261    ( 0.0000,  0.0000,  0.0000)
   2 C      8.543175    8.439076    7.324548    ( 0.0000,  0.0000,  0.0000)
   3 O      8.593538    8.871119    8.508715    ( 0.0000,  0.0000,  0.0000)
   4 H      7.384192    8.904248    4.724708    ( 0.0000,  0.0000,  0.0000)
   5 H      6.336610    7.604204    4.894475    ( 0.0000,  0.0000,  0.0000)
   6 H      6.576375    9.234463    6.859775    ( 0.0000,  0.0000,  0.0000)
   7 C      6.355578    7.148881    7.410475    ( 0.0000,  0.0000,  0.0000)
   8 C      4.848581    7.106648    7.156808    ( 0.0000,  0.0000,  0.0000)
   9 S      4.317800    6.719007    5.447589    ( 0.0000,  0.0000,  0.0000)
  10 C      4.717119    4.952703    5.327603    ( 0.0000,  0.0000,  0.0000)
  11 H      6.499024    7.286406    8.491953    ( 0.0000,  0.0000,  0.0000)
  12 H      6.825970    6.186144    7.155106    ( 0.0000,  0.0000,  0.0000)
  13 H      4.401221    8.090348    7.359331    ( 0.0000,  0.0000,  0.0000)
  14 H      4.370491    6.374212    7.823003    ( 0.0000,  0.0000,  0.0000)
  15 H      5.775452    4.767345    5.545318    ( 0.0000,  0.0000,  0.0000)
  16 H      4.508324    4.661367    4.291285    ( 0.0000,  0.0000,  0.0000)
  17 H      4.084754    4.365537    6.005419    ( 0.0000,  0.0000,  0.0000)
  18 O      9.515246    8.090623    6.593766    ( 0.0000,  0.0000,  0.0000)
  19 H      8.023683    7.415353    5.070280    ( 0.0000,  0.0000,  0.0000)

Unit cell:
           periodic     x           y           z      points  spacing
  1. axis:    no    13.600000    0.000000    0.000000    68     0.2000
  2. axis:    no     0.000000   13.600000    0.000000    68     0.2000
  3. axis:    no     0.000000    0.000000   12.800000    64     0.2000

  Lengths:  13.600000  13.600000  12.800000
  Angles:   90.000000  90.000000  90.000000

Effective grid spacing dv^(1/3) = 0.2000

     iter     time        total  log10-change:
                         energy   eigst   dens
iter:   1 21:36:16  -121.544459
iter:   2 21:36:18  -114.337736   +0.55  -0.70
iter:   3 21:36:19  -112.370952   +0.60  -0.90
iter:   4 21:36:20  -112.105496   -0.22  -1.15
iter:   5 21:36:21  -112.100881   -0.63  -1.53
iter:   6 21:36:22  -112.097533c  -1.09  -2.07
iter:   7 21:36:22  -112.095269c  -1.80  -2.29
iter:   8 21:36:23  -112.093556c  -2.18  -2.46
iter:   9 21:36:24  -112.092817c  -2.60  -2.92
iter:  10 21:36:24  -112.093037c  -3.09  -3.02
iter:  11 21:36:25  -112.093139c  -3.48  -3.54
iter:  12 21:36:25  -112.093161c  -3.89  -3.75
iter:  13 21:36:26  -112.093136c  -4.18  -3.89
iter:  14 21:36:26  -112.093108c  -4.53  -4.14c
iter:  15 21:36:27  -112.093105c  -4.82  -4.38c
iter:  16 21:36:27  -112.093131c  -5.17  -4.78c
iter:  17 21:36:27  -112.093110c  -5.46  -5.04c
iter:  18 21:36:28  -112.093030c  -5.75  -5.23c
iter:  19 21:36:28  -112.093103c  -5.99  -5.57c
iter:  20 21:36:28  -112.093133c  -6.22  -5.68c
iter:  21 21:36:29  -112.093111c  -6.53  -5.79c
iter:  22 21:36:29  -112.093097c  -6.90  -5.90c
iter:  23 21:36:30  -112.093106c  -7.17  -6.15c
iter:  24 21:36:30  -112.093111c  -7.41c -6.23c

Converged after 24 iterations.

Dipole moment: (-1.794876, -0.768148, -1.454881) |e|*Ang

Energy contributions relative to reference atoms: (reference = -21696.578366)

Kinetic:       +110.885206
Potential:     -123.613380
External:        +0.017949
XC:            -102.220320
Entropy (-ST):   +0.000000
Local:           +2.612834
Interactions  
 surf:           +0.224600
--------------------------
Free energy:   -112.093111
Extrapolated:  -112.093111

Solvation cavity surface area: 195.56978
Solvation cavity volume: 208.14329
 Band  Eigenvalues  Occupancy
    0    -25.50010    2.00000
    1    -24.76253    2.00000
    2    -22.80593    2.00000
    3    -20.93548    2.00000
    4    -19.61035    2.00000
    5    -17.93368    2.00000
    6    -16.33201    2.00000
    7    -15.18017    2.00000
    8    -14.74809    2.00000
    9    -14.27037    2.00000
   10    -12.89725    2.00000
   11    -12.25221    2.00000
   12    -11.41560    2.00000
   13    -11.21355    2.00000
   14    -11.07409    2.00000
   15    -10.52701    2.00000
   16    -10.15018    2.00000
   17     -9.85360    2.00000
   18     -9.56932    2.00000
   19     -9.05775    2.00000
   20     -9.02808    2.00000
   21     -8.49230    2.00000
   22     -8.11088    2.00000
   23     -6.17422    2.00000
   24     -5.53295    2.00000
   25     -5.33355    2.00000
   26     -4.87721    2.00000
   27     -1.15494    0.00000
   28     -1.01705    0.00000
   29     -0.50728    0.00000
   30     -0.28886    0.00000
   31     -0.13930    0.00000
   32     -0.03404    0.00000
   33      0.21199    0.00000
   34      0.61271    0.00000
   35      0.69620    0.00000
   36      0.89734    0.00000

Fermi level: -3.01608

Gap: 3.722 eV
Transition (v -> c):
  (s=0, k=0, n=26, [0.00, 0.00, 0.00]) -> (s=0, k=0, n=27, [0.00, 0.00, 0.00])
Input parameters:
  external: {direction: [0. 1. 0.],
             name: ConstantElectricField,
             strength: 0.01}

Initialize ...

species:
  N:
    name: Nitrogen
    id: f7500608b86eaa90eef8b1d9a670dc53
    Z: 7.0
    valence: 5
    core: 2
    charge: 0.0
    file: /home/fr/fr_fr/fr_ez1021/source/gpaw-setups/gpaw-setups-0.9.20000/N.PBE.gz
    compensation charges: {type: gauss,
                           rc: 0.18,
                           lmax: 2}
    cutoffs: {filter: 1.11,
              core: 0.96}
    valence states:
      #              energy  rcut
      - 2s(2.00)   -18.583   0.603
      - 2p(3.00)    -7.089   0.529
      -  s           8.629   0.603
      -  p          20.123   0.529
      -  d           0.000   0.577
  
    # Using partial waves for N as LCAO basis

  C:
    name: Carbon
    id: 4aa54d4b901d75f77cc0ea3eec22967b
    Z: 6.0
    valence: 4
    core: 2
    charge: 0.0
    file: /home/fr/fr_fr/fr_ez1021/source/gpaw-setups/gpaw-setups-0.9.20000/C.PBE.gz
    compensation charges: {type: gauss,
                           rc: 0.20,
                           lmax: 2}
    cutoffs: {filter: 1.14,
              core: 1.14}
    valence states:
      #              energy  rcut
      - 2s(2.00)   -13.751   0.635
      - 2p(2.00)    -5.284   0.635
      -  s          13.461   0.635
      -  p          21.927   0.635
      -  d           0.000   0.635
  
    # Using partial waves for C as LCAO basis

  O:
    name: Oxygen
    id: 32ecd46bf208036f09c70b0ec9a88b78
    Z: 8.0
    valence: 6
    core: 2
    charge: 0.0
    file: /home/fr/fr_fr/fr_ez1021/source/gpaw-setups/gpaw-setups-0.9.20000/O.PBE.gz
    compensation charges: {type: gauss,
                           rc: 0.21,
                           lmax: 2}
    cutoffs: {filter: 1.17,
              core: 0.83}
    valence states:
      #              energy  rcut
      - 2s(2.00)   -23.961   0.688
      - 2p(4.00)    -9.029   0.598
      -  s           3.251   0.688
      -  p          18.182   0.598
      -  d           0.000   0.619
  
    # Using partial waves for O as LCAO basis

  H:
    name: Hydrogen
    id: d65de229564ff8ea4db303e23b6d1ecf
    Z: 1.0
    valence: 1
    core: 0
    charge: 0.0
    file: /home/fr/fr_fr/fr_ez1021/source/gpaw-setups/gpaw-setups-0.9.20000/H.PBE.gz
    compensation charges: {type: gauss,
                           rc: 0.15,
                           lmax: 2}
    cutoffs: {filter: 0.85,
              core: 0.53}
    valence states:
      #              energy  rcut
      - 1s(1.00)    -6.494   0.476
      -  s          20.717   0.476
      -  p           0.000   0.476
  
    # Using partial waves for H as LCAO basis

  S:
    name: Sulfur
    id: ca434db9faa07220b7a1d8cb6886b7a9
    Z: 16.0
    valence: 6
    core: 10
    charge: 0.0
    file: /home/fr/fr_fr/fr_ez1021/source/gpaw-setups/gpaw-setups-0.9.20000/S.PBE.gz
    compensation charges: {type: gauss,
                           rc: 0.24,
                           lmax: 2}
    cutoffs: {filter: 1.77,
              core: 1.66}
    valence states:
      #              energy  rcut
      - 3s(2.00)   -17.254   0.974
      - 3p(4.00)    -7.008   0.979
      -  s           9.957   0.974
      -  p          20.203   0.979
      -  d           0.000   0.900
  
    # Using partial waves for S as LCAO basis

Reference energy: -21696.578366  # eV

Spin-paired calculation

Convergence criteria:
 Maximum [total energy] change in last 3 cyles: 0.0005 eV / valence electron
 Maximum integral of absolute [dens]ity change: 0.0001 electrons / valence electron
 Maximum integral of absolute [eigenst]ate change: 4e-08 eV^2 / valence electron
 Maximum number of scf [iter]ations: 333
 (Square brackets indicate name in SCF output, whereas a 'c' in
 the SCF output indicates the quantity has converged.)

Symmetries present (total): 1

  ( 1  0  0)
  ( 0  1  0)
  ( 0  0  1)

1 k-point (Gamma)
1 k-point in the irreducible part of the Brillouin zone
       k-points in crystal coordinates                weights
   0:     0.00000000    0.00000000    0.00000000          1/1

Wave functions: Uniform real-space grid
  Kinetic energy operator: 6*3+1=19 point O(h^6) finite-difference Laplacian
  ScaLapack parameters: grid=1x1, blocksize=None
  Wavefunction extrapolation:
    Improved wavefunction reuse through dual PAW basis 

Occupation numbers: # Zero width 

Eigensolver
   Davidson(niter=2) 

Densities:
  Coarse grid: 68*68*64 grid
  Fine grid: 136*136*128 grid
  Total Charge: 0.000000 

Density mixing:
  Method: separate
  Backend: pulay
  Linear mixing parameter: 0.25
  old densities: 3
  Damping of long wavelength oscillations: 1  # (no daming) 

Hamiltonian:
  XC and Coulomb potentials evaluated on a 136*136*128 grid
  Using the PBE Exchange-Correlation functional
  External potential:
    Constant electric field: (0.000, 0.010, 0.000) V/Ang
  Interpolation: tri-quintic (5. degree polynomial)
  Poisson solver: Jacobi weighted FD solver with dielectric and 4 multi-grid levels
    Coarsest grid: 17 x 17 x 16 points
    Stencil: Weighted Finite Difference Operator
      6*3+1=19 point O(h^6) finite-difference Laplacian
      Finite-difference x-derivative with O(h^6) error (6 points)
      Finite-difference y-derivative with O(h^6) error (6 points)
      Finite-difference z-derivative with O(h^6) error (6 points)
    Max iterations: 1000
    Tolerance: 2.000000e-10

  Solvation:
    Cavity:  EffectivePotentialCavity
      Surface Calculator: GradientSurface with 3 nn
      Volume Calculator: KB51Volume
        compressibility: 72.57860092224
        temperature:     298.15
      EffectivePotentialCavity
        Potential: Power12Potential
          u0: 0.18eV
          pbc_cutoff: 1e-06
          tiny: 1e-10
        temperature: 298.15K    Dielectric:
      Type: LinearDielectric
      Solvent dielectric constant: 1.77    Interaction: SurfaceInteraction
      subscript: surf
      Surface_tension: 0.0011484376791625194 eV/(Angstrom^2)
XC parameters: PBE with 2 nearest neighbor stencil

Memory estimate:
  Process memory now: 250.40 MiB
  Calculator: 48.41 MiB
    Density: 4.81 MiB
      Arrays: 3.44 MiB
      Localized functions: 0.62 MiB
      Mixer: 0.75 MiB
    Hamiltonian: 33.57 MiB
      Arrays: 2.25 MiB
      XC: 0.00 MiB
      Poisson: 2.57 MiB
      vbar: 0.05 MiB
      Solvation: 28.69 MiB
    Wavefunctions: 10.04 MiB
      Arrays psit_nG: 4.62 MiB
      Eigensolver: 5.35 MiB
      Projections: 0.00 MiB
      Projectors: 0.07 MiB

Total number of cores used: 16
Domain decomposition: 2 x 4 x 2

Number of atoms: 20
Number of atomic orbitals: 47
Number of bands in calculation: 37
Number of valence electrons: 54
Bands to converge: occupied

... initialized

Initializing position-dependent things.

Solvation position-dependent initialization:
  Atomic radii for Power12Potential:
    Type    Radius   No. of atoms
       H     1.090     11
       O     1.520     2
       N     1.550     1
       C     1.700     5
       S     1.800     1

Density initialized from atomic densities
Creating initial wave functions:
  37 bands from LCAO basis set

         .--------------------------------.  
        /|                                |  
       / |                                |  
      /  |                                |  
     /   |                                |  
    /    |                                |  
   /     |                                |  
  /      |                                |  
 *       |                 O              |  
 |       |           H                    |  
 |       |     HH     H    C              |  
 |       |       C   H C     O            |  
 |       |                                |  
 |       |     S     H NHH                |  
 |       |   H C  H                       |  
 |       |                                |  
 |       .-----H--------------------------.  
 |      /                                /   
 |     /                                /    
 |    /                                /     
 |   /                                /      
 |  /                                /       
 | /                                /        
 |/                                /         
 *--------------------------------*          

Positions:
   0 N      7.219543    8.036149    5.245440    ( 0.0000,  0.0000,  0.0000)
   1 C      7.116887    8.287450    6.724261    ( 0.0000,  0.0000,  0.0000)
   2 C      8.543175    8.439076    7.324548    ( 0.0000,  0.0000,  0.0000)
   3 O      8.593538    8.871119    8.508715    ( 0.0000,  0.0000,  0.0000)
   4 H      7.384192    8.904248    4.724708    ( 0.0000,  0.0000,  0.0000)
   5 H      6.336610    7.604204    4.894475    ( 0.0000,  0.0000,  0.0000)
   6 H      6.576375    9.234463    6.859775    ( 0.0000,  0.0000,  0.0000)
   7 C      6.355578    7.148881    7.410475    ( 0.0000,  0.0000,  0.0000)
   8 C      4.848581    7.106648    7.156808    ( 0.0000,  0.0000,  0.0000)
   9 S      4.317800    6.719007    5.447589    ( 0.0000,  0.0000,  0.0000)
  10 C      4.717119    4.952703    5.327603    ( 0.0000,  0.0000,  0.0000)
  11 H      6.499024    7.286406    8.491953    ( 0.0000,  0.0000,  0.0000)
  12 H      6.825970    6.186144    7.155106    ( 0.0000,  0.0000,  0.0000)
  13 H      4.401221    8.090348    7.359331    ( 0.0000,  0.0000,  0.0000)
  14 H      4.370491    6.374212    7.823003    ( 0.0000,  0.0000,  0.0000)
  15 H      5.775452    4.767345    5.545318    ( 0.0000,  0.0000,  0.0000)
  16 H      4.508324    4.661367    4.291285    ( 0.0000,  0.0000,  0.0000)
  17 H      4.084754    4.365537    6.005419    ( 0.0000,  0.0000,  0.0000)
  18 O      9.515246    8.090623    6.593766    ( 0.0000,  0.0000,  0.0000)
  19 H      8.023683    7.415353    5.070280    ( 0.0000,  0.0000,  0.0000)

Unit cell:
           periodic     x           y           z      points  spacing
  1. axis:    no    13.600000    0.000000    0.000000    68     0.2000
  2. axis:    no     0.000000   13.600000    0.000000    68     0.2000
  3. axis:    no     0.000000    0.000000   12.800000    64     0.2000

  Lengths:  13.600000  13.600000  12.800000
  Angles:   90.000000  90.000000  90.000000

Effective grid spacing dv^(1/3) = 0.2000

     iter     time        total  log10-change:
                         energy   eigst   dens
iter:   1 21:36:33  -121.562441
iter:   2 21:36:34  -114.348886   +0.55  -0.70
iter:   3 21:36:36  -112.381892   +0.60  -0.90
iter:   4 21:36:37  -112.115925   -0.22  -1.15
iter:   5 21:36:38  -112.111251   -0.63  -1.53
iter:   6 21:36:39  -112.107925c  -1.09  -2.07
iter:   7 21:36:39  -112.105657c  -1.80  -2.29
iter:   8 21:36:40  -112.103943c  -2.18  -2.46
iter:   9 21:36:40  -112.103195c  -2.60  -2.92
iter:  10 21:36:41  -112.103416c  -3.09  -3.02
iter:  11 21:36:42  -112.103521c  -3.48  -3.54
iter:  12 21:36:42  -112.103544c  -3.89  -3.75
iter:  13 21:36:43  -112.103518c  -4.19  -3.89
iter:  14 21:36:43  -112.103488c  -4.53  -4.14c
iter:  15 21:36:43  -112.103485c  -4.82  -4.38c
iter:  16 21:36:44  -112.103512c  -5.18  -4.78c
iter:  17 21:36:44  -112.103492c  -5.46  -5.04c
iter:  18 21:36:45  -112.103413c  -5.76  -5.23c
iter:  19 21:36:45  -112.103483c  -6.00  -5.56c
iter:  20 21:36:45  -112.103513c  -6.23  -5.67c
iter:  21 21:36:46  -112.103490c  -6.54  -5.80c
iter:  22 21:36:46  -112.103477c  -6.91  -5.92c
iter:  23 21:36:47  -112.103486c  -7.18  -6.16c
iter:  24 21:36:47  -112.103491c  -7.43c -6.23c

Converged after 24 iterations.

Dipole moment: (-1.807184, -0.757806, -1.454311) |e|*Ang

Energy contributions relative to reference atoms: (reference = -21696.578366)

Kinetic:       +110.884188
Potential:     -123.610680
External:        +0.007578
XC:            -102.222164
Entropy (-ST):   +0.000000
Local:           +2.612987
Interactions  
 surf:           +0.224600
--------------------------
Free energy:   -112.103491
Extrapolated:  -112.103491

Solvation cavity surface area: 195.56978
Solvation cavity volume: 208.14329
 Band  Eigenvalues  Occupancy
    0    -25.49538    2.00000
    1    -24.75898    2.00000
    2    -22.80602    2.00000
    3    -20.92140    2.00000
    4    -19.60006    2.00000
    5    -17.92281    2.00000
    6    -16.32213    2.00000
    7    -15.16818    2.00000
    8    -14.74040    2.00000
    9    -14.25958    2.00000
   10    -12.88886    2.00000
   11    -12.24323    2.00000
   12    -11.40502    2.00000
   13    -11.20191    2.00000
   14    -11.06550    2.00000
   15    -10.52051    2.00000
   16    -10.14315    2.00000
   17     -9.84490    2.00000
   18     -9.56277    2.00000
   19     -9.05606    2.00000
   20     -9.01829    2.00000
   21     -8.48863    2.00000
   22     -8.09493    2.00000
   23     -6.15798    2.00000
   24     -5.53368    2.00000
   25     -5.33486    2.00000
   26     -4.87582    2.00000
   27     -1.14836    0.00000
   28     -1.00033    0.00000
   29     -0.49358    0.00000
   30     -0.26892    0.00000
   31     -0.12154    0.00000
   32     -0.03409    0.00000
   33      0.21408    0.00000
   34      0.61765    0.00000
   35      0.70759    0.00000
   36      0.91142    0.00000

Fermi level: -3.01209

Gap: 3.727 eV
Transition (v -> c):
  (s=0, k=0, n=26, [0.00, 0.00, 0.00]) -> (s=0, k=0, n=27, [0.00, 0.00, 0.00])
Input parameters:
  external: {direction: [0. 0. 1.],
             name: ConstantElectricField,
             strength: 0.01}

Initialize ...

species:
  N:
    name: Nitrogen
    id: f7500608b86eaa90eef8b1d9a670dc53
    Z: 7.0
    valence: 5
    core: 2
    charge: 0.0
    file: /home/fr/fr_fr/fr_ez1021/source/gpaw-setups/gpaw-setups-0.9.20000/N.PBE.gz
    compensation charges: {type: gauss,
                           rc: 0.18,
                           lmax: 2}
    cutoffs: {filter: 1.11,
              core: 0.96}
    valence states:
      #              energy  rcut
      - 2s(2.00)   -18.583   0.603
      - 2p(3.00)    -7.089   0.529
      -  s           8.629   0.603
      -  p          20.123   0.529
      -  d           0.000   0.577
  
    # Using partial waves for N as LCAO basis

  C:
    name: Carbon
    id: 4aa54d4b901d75f77cc0ea3eec22967b
    Z: 6.0
    valence: 4
    core: 2
    charge: 0.0
    file: /home/fr/fr_fr/fr_ez1021/source/gpaw-setups/gpaw-setups-0.9.20000/C.PBE.gz
    compensation charges: {type: gauss,
                           rc: 0.20,
                           lmax: 2}
    cutoffs: {filter: 1.14,
              core: 1.14}
    valence states:
      #              energy  rcut
      - 2s(2.00)   -13.751   0.635
      - 2p(2.00)    -5.284   0.635
      -  s          13.461   0.635
      -  p          21.927   0.635
      -  d           0.000   0.635
  
    # Using partial waves for C as LCAO basis

  O:
    name: Oxygen
    id: 32ecd46bf208036f09c70b0ec9a88b78
    Z: 8.0
    valence: 6
    core: 2
    charge: 0.0
    file: /home/fr/fr_fr/fr_ez1021/source/gpaw-setups/gpaw-setups-0.9.20000/O.PBE.gz
    compensation charges: {type: gauss,
                           rc: 0.21,
                           lmax: 2}
    cutoffs: {filter: 1.17,
              core: 0.83}
    valence states:
      #              energy  rcut
      - 2s(2.00)   -23.961   0.688
      - 2p(4.00)    -9.029   0.598
      -  s           3.251   0.688
      -  p          18.182   0.598
      -  d           0.000   0.619
  
    # Using partial waves for O as LCAO basis

  H:
    name: Hydrogen
    id: d65de229564ff8ea4db303e23b6d1ecf
    Z: 1.0
    valence: 1
    core: 0
    charge: 0.0
    file: /home/fr/fr_fr/fr_ez1021/source/gpaw-setups/gpaw-setups-0.9.20000/H.PBE.gz
    compensation charges: {type: gauss,
                           rc: 0.15,
                           lmax: 2}
    cutoffs: {filter: 0.85,
              core: 0.53}
    valence states:
      #              energy  rcut
      - 1s(1.00)    -6.494   0.476
      -  s          20.717   0.476
      -  p           0.000   0.476
  
    # Using partial waves for H as LCAO basis

  S:
    name: Sulfur
    id: ca434db9faa07220b7a1d8cb6886b7a9
    Z: 16.0
    valence: 6
    core: 10
    charge: 0.0
    file: /home/fr/fr_fr/fr_ez1021/source/gpaw-setups/gpaw-setups-0.9.20000/S.PBE.gz
    compensation charges: {type: gauss,
                           rc: 0.24,
                           lmax: 2}
    cutoffs: {filter: 1.77,
              core: 1.66}
    valence states:
      #              energy  rcut
      - 3s(2.00)   -17.254   0.974
      - 3p(4.00)    -7.008   0.979
      -  s           9.957   0.974
      -  p          20.203   0.979
      -  d           0.000   0.900
  
    # Using partial waves for S as LCAO basis

Reference energy: -21696.578366  # eV

Spin-paired calculation

Convergence criteria:
 Maximum [total energy] change in last 3 cyles: 0.0005 eV / valence electron
 Maximum integral of absolute [dens]ity change: 0.0001 electrons / valence electron
 Maximum integral of absolute [eigenst]ate change: 4e-08 eV^2 / valence electron
 Maximum number of scf [iter]ations: 333
 (Square brackets indicate name in SCF output, whereas a 'c' in
 the SCF output indicates the quantity has converged.)

Symmetries present (total): 1

  ( 1  0  0)
  ( 0  1  0)
  ( 0  0  1)

1 k-point (Gamma)
1 k-point in the irreducible part of the Brillouin zone
       k-points in crystal coordinates                weights
   0:     0.00000000    0.00000000    0.00000000          1/1

Wave functions: Uniform real-space grid
  Kinetic energy operator: 6*3+1=19 point O(h^6) finite-difference Laplacian
  ScaLapack parameters: grid=1x1, blocksize=None
  Wavefunction extrapolation:
    Improved wavefunction reuse through dual PAW basis 

Occupation numbers: # Zero width 

Eigensolver
   Davidson(niter=2) 

Densities:
  Coarse grid: 68*68*64 grid
  Fine grid: 136*136*128 grid
  Total Charge: 0.000000 

Density mixing:
  Method: separate
  Backend: pulay
  Linear mixing parameter: 0.25
  old densities: 3
  Damping of long wavelength oscillations: 1  # (no daming) 

Hamiltonian:
  XC and Coulomb potentials evaluated on a 136*136*128 grid
  Using the PBE Exchange-Correlation functional
  External potential:
    Constant electric field: (0.000, 0.000, 0.010) V/Ang
  Interpolation: tri-quintic (5. degree polynomial)
  Poisson solver: Jacobi weighted FD solver with dielectric and 4 multi-grid levels
    Coarsest grid: 17 x 17 x 16 points
    Stencil: Weighted Finite Difference Operator
      6*3+1=19 point O(h^6) finite-difference Laplacian
      Finite-difference x-derivative with O(h^6) error (6 points)
      Finite-difference y-derivative with O(h^6) error (6 points)
      Finite-difference z-derivative with O(h^6) error (6 points)
    Max iterations: 1000
    Tolerance: 2.000000e-10

  Solvation:
    Cavity:  EffectivePotentialCavity
      Surface Calculator: GradientSurface with 3 nn
      Volume Calculator: KB51Volume
        compressibility: 72.57860092224
        temperature:     298.15
      EffectivePotentialCavity
        Potential: Power12Potential
          u0: 0.18eV
          pbc_cutoff: 1e-06
          tiny: 1e-10
        temperature: 298.15K    Dielectric:
      Type: LinearDielectric
      Solvent dielectric constant: 1.77    Interaction: SurfaceInteraction
      subscript: surf
      Surface_tension: 0.0011484376791625194 eV/(Angstrom^2)
XC parameters: PBE with 2 nearest neighbor stencil

Memory estimate:
  Process memory now: 257.43 MiB
  Calculator: 48.41 MiB
    Density: 4.81 MiB
      Arrays: 3.44 MiB
      Localized functions: 0.62 MiB
      Mixer: 0.75 MiB
    Hamiltonian: 33.57 MiB
      Arrays: 2.25 MiB
      XC: 0.00 MiB
      Poisson: 2.57 MiB
      vbar: 0.05 MiB
      Solvation: 28.69 MiB
    Wavefunctions: 10.04 MiB
      Arrays psit_nG: 4.62 MiB
      Eigensolver: 5.35 MiB
      Projections: 0.00 MiB
      Projectors: 0.07 MiB

Total number of cores used: 16
Domain decomposition: 2 x 4 x 2

Number of atoms: 20
Number of atomic orbitals: 47
Number of bands in calculation: 37
Number of valence electrons: 54
Bands to converge: occupied

... initialized

Initializing position-dependent things.

Solvation position-dependent initialization:
  Atomic radii for Power12Potential:
    Type    Radius   No. of atoms
       H     1.090     11
       O     1.520     2
       N     1.550     1
       C     1.700     5
       S     1.800     1

Density initialized from atomic densities
Creating initial wave functions:
  37 bands from LCAO basis set

         .--------------------------------.  
        /|                                |  
       / |                                |  
      /  |                                |  
     /   |                                |  
    /    |                                |  
   /     |                                |  
  /      |                                |  
 *       |                 O              |  
 |       |           H                    |  
 |       |     HH     H    C              |  
 |       |       C   H C     O            |  
 |       |                                |  
 |       |     S     H NHH                |  
 |       |   H C  H                       |  
 |       |                                |  
 |       .-----H--------------------------.  
 |      /                                /   
 |     /                                /    
 |    /                                /     
 |   /                                /      
 |  /                                /       
 | /                                /        
 |/                                /         
 *--------------------------------*          

Positions:
   0 N      7.219543    8.036149    5.245440    ( 0.0000,  0.0000,  0.0000)
   1 C      7.116887    8.287450    6.724261    ( 0.0000,  0.0000,  0.0000)
   2 C      8.543175    8.439076    7.324548    ( 0.0000,  0.0000,  0.0000)
   3 O      8.593538    8.871119    8.508715    ( 0.0000,  0.0000,  0.0000)
   4 H      7.384192    8.904248    4.724708    ( 0.0000,  0.0000,  0.0000)
   5 H      6.336610    7.604204    4.894475    ( 0.0000,  0.0000,  0.0000)
   6 H      6.576375    9.234463    6.859775    ( 0.0000,  0.0000,  0.0000)
   7 C      6.355578    7.148881    7.410475    ( 0.0000,  0.0000,  0.0000)
   8 C      4.848581    7.106648    7.156808    ( 0.0000,  0.0000,  0.0000)
   9 S      4.317800    6.719007    5.447589    ( 0.0000,  0.0000,  0.0000)
  10 C      4.717119    4.952703    5.327603    ( 0.0000,  0.0000,  0.0000)
  11 H      6.499024    7.286406    8.491953    ( 0.0000,  0.0000,  0.0000)
  12 H      6.825970    6.186144    7.155106    ( 0.0000,  0.0000,  0.0000)
  13 H      4.401221    8.090348    7.359331    ( 0.0000,  0.0000,  0.0000)
  14 H      4.370491    6.374212    7.823003    ( 0.0000,  0.0000,  0.0000)
  15 H      5.775452    4.767345    5.545318    ( 0.0000,  0.0000,  0.0000)
  16 H      4.508324    4.661367    4.291285    ( 0.0000,  0.0000,  0.0000)
  17 H      4.084754    4.365537    6.005419    ( 0.0000,  0.0000,  0.0000)
  18 O      9.515246    8.090623    6.593766    ( 0.0000,  0.0000,  0.0000)
  19 H      8.023683    7.415353    5.070280    ( 0.0000,  0.0000,  0.0000)

Unit cell:
           periodic     x           y           z      points  spacing
  1. axis:    no    13.600000    0.000000    0.000000    68     0.2000
  2. axis:    no     0.000000   13.600000    0.000000    68     0.2000
  3. axis:    no     0.000000    0.000000   12.800000    64     0.2000

  Lengths:  13.600000  13.600000  12.800000
  Angles:   90.000000  90.000000  90.000000

Effective grid spacing dv^(1/3) = 0.2000

     iter     time        total  log10-change:
                         energy   eigst   dens
iter:   1 21:36:50  -121.545578
iter:   2 21:36:51  -114.340517   +0.55  -0.70
iter:   3 21:36:53  -112.374885   +0.60  -0.90
iter:   4 21:36:54  -112.109102   -0.22  -1.15
iter:   5 21:36:55  -112.104417   -0.63  -1.53
iter:   6 21:36:55  -112.101057c  -1.09  -2.07
iter:   7 21:36:56  -112.098795c  -1.80  -2.29
iter:   8 21:36:57  -112.097087c  -2.18  -2.46
iter:   9 21:36:57  -112.096338c  -2.61  -2.92
iter:  10 21:36:58  -112.096561c  -3.09  -3.02
iter:  11 21:36:58  -112.096666c  -3.49  -3.54
iter:  12 21:36:59  -112.096689c  -3.89  -3.75
iter:  13 21:36:59  -112.096662c  -4.19  -3.89
iter:  14 21:37:00  -112.096633c  -4.53  -4.14c
iter:  15 21:37:00  -112.096630c  -4.82  -4.37c
iter:  16 21:37:01  -112.096657c  -5.18  -4.77c
iter:  17 21:37:01  -112.096637c  -5.47  -5.03c
iter:  18 21:37:01  -112.096556c  -5.76  -5.22c
iter:  19 21:37:02  -112.096627c  -6.00  -5.54c
iter:  20 21:37:02  -112.096656c  -6.24  -5.66c
iter:  21 21:37:02  -112.096634c  -6.55  -5.78c
iter:  22 21:37:03  -112.096618c  -6.91  -5.91c
iter:  23 21:37:03  -112.096631c  -7.18  -6.13c
iter:  24 21:37:03  -112.096638c  -7.47c -6.22c

Converged after 24 iterations.

Dipole moment: (-1.807764, -0.768158, -1.442778) |e|*Ang

Energy contributions relative to reference atoms: (reference = -21696.578366)

Kinetic:       +110.886296
Potential:     -123.614221
External:        +0.014428
XC:            -102.220615
Entropy (-ST):   +0.000000
Local:           +2.612874
Interactions  
 surf:           +0.224600
--------------------------
Free energy:   -112.096638
Extrapolated:  -112.096638

Solvation cavity surface area: 195.56978
Solvation cavity volume: 208.14329
 Band  Eigenvalues  Occupancy
    0    -25.50681    2.00000
    1    -24.76934    2.00000
    2    -22.81254    2.00000
    3    -20.92238    2.00000
    4    -19.60249    2.00000
    5    -17.92515    2.00000
    6    -16.32418    2.00000
    7    -15.17486    2.00000
    8    -14.75416    2.00000
    9    -14.26892    2.00000
   10    -12.89763    2.00000
   11    -12.24751    2.00000
   12    -11.40375    2.00000
   13    -11.20599    2.00000
   14    -11.06314    2.00000
   15    -10.52022    2.00000
   16    -10.14308    2.00000
   17     -9.84739    2.00000
   18     -9.56686    2.00000
   19     -9.06133    2.00000
   20     -9.01913    2.00000
   21     -8.49421    2.00000
   22     -8.09736    2.00000
   23     -6.16192    2.00000
   24     -5.53989    2.00000
   25     -5.34246    2.00000
   26     -4.88116    2.00000
   27     -1.17042    0.00000
   28     -1.00825    0.00000
   29     -0.48622    0.00000
   30     -0.28068    0.00000
   31     -0.13355    0.00000
   32     -0.03050    0.00000
   33      0.21548    0.00000
   34      0.61817    0.00000
   35      0.70174    0.00000
   36      0.91383    0.00000

Fermi level: -3.02579

Gap: 3.711 eV
Transition (v -> c):
  (s=0, k=0, n=26, [0.00, 0.00, 0.00]) -> (s=0, k=0, n=27, [0.00, 0.00, 0.00])
Input parameters:
  external: None

Initialize ...

species:
  N:
    name: Nitrogen
    id: f7500608b86eaa90eef8b1d9a670dc53
    Z: 7.0
    valence: 5
    core: 2
    charge: 0.0
    file: /home/fr/fr_fr/fr_ez1021/source/gpaw-setups/gpaw-setups-0.9.20000/N.PBE.gz
    compensation charges: {type: gauss,
                           rc: 0.18,
                           lmax: 2}
    cutoffs: {filter: 1.11,
              core: 0.96}
    valence states:
      #              energy  rcut
      - 2s(2.00)   -18.583   0.603
      - 2p(3.00)    -7.089   0.529
      -  s           8.629   0.603
      -  p          20.123   0.529
      -  d           0.000   0.577
  
    # Using partial waves for N as LCAO basis

  C:
    name: Carbon
    id: 4aa54d4b901d75f77cc0ea3eec22967b
    Z: 6.0
    valence: 4
    core: 2
    charge: 0.0
    file: /home/fr/fr_fr/fr_ez1021/source/gpaw-setups/gpaw-setups-0.9.20000/C.PBE.gz
    compensation charges: {type: gauss,
                           rc: 0.20,
                           lmax: 2}
    cutoffs: {filter: 1.14,
              core: 1.14}
    valence states:
      #              energy  rcut
      - 2s(2.00)   -13.751   0.635
      - 2p(2.00)    -5.284   0.635
      -  s          13.461   0.635
      -  p          21.927   0.635
      -  d           0.000   0.635
  
    # Using partial waves for C as LCAO basis

  O:
    name: Oxygen
    id: 32ecd46bf208036f09c70b0ec9a88b78
    Z: 8.0
    valence: 6
    core: 2
    charge: 0.0
    file: /home/fr/fr_fr/fr_ez1021/source/gpaw-setups/gpaw-setups-0.9.20000/O.PBE.gz
    compensation charges: {type: gauss,
                           rc: 0.21,
                           lmax: 2}
    cutoffs: {filter: 1.17,
              core: 0.83}
    valence states:
      #              energy  rcut
      - 2s(2.00)   -23.961   0.688
      - 2p(4.00)    -9.029   0.598
      -  s           3.251   0.688
      -  p          18.182   0.598
      -  d           0.000   0.619
  
    # Using partial waves for O as LCAO basis

  H:
    name: Hydrogen
    id: d65de229564ff8ea4db303e23b6d1ecf
    Z: 1.0
    valence: 1
    core: 0
    charge: 0.0
    file: /home/fr/fr_fr/fr_ez1021/source/gpaw-setups/gpaw-setups-0.9.20000/H.PBE.gz
    compensation charges: {type: gauss,
                           rc: 0.15,
                           lmax: 2}
    cutoffs: {filter: 0.85,
              core: 0.53}
    valence states:
      #              energy  rcut
      - 1s(1.00)    -6.494   0.476
      -  s          20.717   0.476
      -  p           0.000   0.476
  
    # Using partial waves for H as LCAO basis

  S:
    name: Sulfur
    id: ca434db9faa07220b7a1d8cb6886b7a9
    Z: 16.0
    valence: 6
    core: 10
    charge: 0.0
    file: /home/fr/fr_fr/fr_ez1021/source/gpaw-setups/gpaw-setups-0.9.20000/S.PBE.gz
    compensation charges: {type: gauss,
                           rc: 0.24,
                           lmax: 2}
    cutoffs: {filter: 1.77,
              core: 1.66}
    valence states:
      #              energy  rcut
      - 3s(2.00)   -17.254   0.974
      - 3p(4.00)    -7.008   0.979
      -  s           9.957   0.974
      -  p          20.203   0.979
      -  d           0.000   0.900
  
    # Using partial waves for S as LCAO basis

Reference energy: -21696.578366  # eV

Spin-paired calculation

Convergence criteria:
 Maximum [total energy] change in last 3 cyles: 0.0005 eV / valence electron
 Maximum integral of absolute [dens]ity change: 0.0001 electrons / valence electron
 Maximum integral of absolute [eigenst]ate change: 4e-08 eV^2 / valence electron
 Maximum number of scf [iter]ations: 333
 (Square brackets indicate name in SCF output, whereas a 'c' in
 the SCF output indicates the quantity has converged.)

Symmetries present (total): 1

  ( 1  0  0)
  ( 0  1  0)
  ( 0  0  1)

1 k-point (Gamma)
1 k-point in the irreducible part of the Brillouin zone
       k-points in crystal coordinates                weights
   0:     0.00000000    0.00000000    0.00000000          1/1

Wave functions: Uniform real-space grid
  Kinetic energy operator: 6*3+1=19 point O(h^6) finite-difference Laplacian
  ScaLapack parameters: grid=1x1, blocksize=None
  Wavefunction extrapolation:
    Improved wavefunction reuse through dual PAW basis 

Occupation numbers: # Zero width 

Eigensolver
   Davidson(niter=2) 

Densities:
  Coarse grid: 68*68*64 grid
  Fine grid: 136*136*128 grid
  Total Charge: 0.000000 

Density mixing:
  Method: separate
  Backend: pulay
  Linear mixing parameter: 0.25
  old densities: 3
  Damping of long wavelength oscillations: 1  # (no daming) 

Hamiltonian:
  XC and Coulomb potentials evaluated on a 136*136*128 grid
  Using the PBE Exchange-Correlation functional
  Interpolation: tri-quintic (5. degree polynomial)
  Poisson solver: Jacobi weighted FD solver with dielectric and 4 multi-grid levels
    Coarsest grid: 17 x 17 x 16 points
    Stencil: Weighted Finite Difference Operator
      6*3+1=19 point O(h^6) finite-difference Laplacian
      Finite-difference x-derivative with O(h^6) error (6 points)
      Finite-difference y-derivative with O(h^6) error (6 points)
      Finite-difference z-derivative with O(h^6) error (6 points)
    Max iterations: 1000
    Tolerance: 2.000000e-10

  Solvation:
    Cavity:  EffectivePotentialCavity
      Surface Calculator: GradientSurface with 3 nn
      Volume Calculator: KB51Volume
        compressibility: 72.57860092224
        temperature:     298.15
      EffectivePotentialCavity
        Potential: Power12Potential
          u0: 0.18eV
          pbc_cutoff: 1e-06
          tiny: 1e-10
        temperature: 298.15K    Dielectric:
      Type: LinearDielectric
      Solvent dielectric constant: 1.77    Interaction: SurfaceInteraction
      subscript: surf
      Surface_tension: 0.0011484376791625194 eV/(Angstrom^2)
XC parameters: PBE with 2 nearest neighbor stencil

Memory estimate:
  Process memory now: 261.96 MiB
  Calculator: 48.41 MiB
    Density: 4.81 MiB
      Arrays: 3.44 MiB
      Localized functions: 0.62 MiB
      Mixer: 0.75 MiB
    Hamiltonian: 33.57 MiB
      Arrays: 2.25 MiB
      XC: 0.00 MiB
      Poisson: 2.57 MiB
      vbar: 0.05 MiB
      Solvation: 28.69 MiB
    Wavefunctions: 10.04 MiB
      Arrays psit_nG: 4.62 MiB
      Eigensolver: 5.35 MiB
      Projections: 0.00 MiB
      Projectors: 0.07 MiB

Total number of cores used: 16
Domain decomposition: 2 x 4 x 2

Number of atoms: 20
Number of atomic orbitals: 47
Number of bands in calculation: 37
Number of valence electrons: 54
Bands to converge: occupied

... initialized

Initializing position-dependent things.

Solvation position-dependent initialization:
  Atomic radii for Power12Potential:
    Type    Radius   No. of atoms
       H     1.090     11
       O     1.520     2
       N     1.550     1
       C     1.700     5
       S     1.800     1

Density initialized from atomic densities
Creating initial wave functions:
  37 bands from LCAO basis set

         .--------------------------------.  
        /|                                |  
       / |                                |  
      /  |                                |  
     /   |                                |  
    /    |                                |  
   /     |                                |  
  /      |                                |  
 *       |                 O              |  
 |       |           H                    |  
 |       |     HH     H    C              |  
 |       |       C   H C     O            |  
 |       |                                |  
 |       |     S     H NHH                |  
 |       |   H C  H                       |  
 |       |                                |  
 |       .-----H--------------------------.  
 |      /                                /   
 |     /                                /    
 |    /                                /     
 |   /                                /      
 |  /                                /       
 | /                                /        
 |/                                /         
 *--------------------------------*          

Positions:
   0 N      7.219543    8.036149    5.245440    ( 0.0000,  0.0000,  0.0000)
   1 C      7.116887    8.287450    6.724261    ( 0.0000,  0.0000,  0.0000)
   2 C      8.543175    8.439076    7.324548    ( 0.0000,  0.0000,  0.0000)
   3 O      8.593538    8.871119    8.508715    ( 0.0000,  0.0000,  0.0000)
   4 H      7.384192    8.904248    4.724708    ( 0.0000,  0.0000,  0.0000)
   5 H      6.336610    7.604204    4.894475    ( 0.0000,  0.0000,  0.0000)
   6 H      6.576375    9.234463    6.859775    ( 0.0000,  0.0000,  0.0000)
   7 C      6.355578    7.148881    7.410475    ( 0.0000,  0.0000,  0.0000)
   8 C      4.848581    7.106648    7.156808    ( 0.0000,  0.0000,  0.0000)
   9 S      4.317800    6.719007    5.447589    ( 0.0000,  0.0000,  0.0000)
  10 C      4.717119    4.952703    5.327603    ( 0.0000,  0.0000,  0.0000)
  11 H      6.499024    7.286406    8.491953    ( 0.0000,  0.0000,  0.0000)
  12 H      6.825970    6.186144    7.155106    ( 0.0000,  0.0000,  0.0000)
  13 H      4.401221    8.090348    7.359331    ( 0.0000,  0.0000,  0.0000)
  14 H      4.370491    6.374212    7.823003    ( 0.0000,  0.0000,  0.0000)
  15 H      5.775452    4.767345    5.545318    ( 0.0000,  0.0000,  0.0000)
  16 H      4.508324    4.661367    4.291285    ( 0.0000,  0.0000,  0.0000)
  17 H      4.084754    4.365537    6.005419    ( 0.0000,  0.0000,  0.0000)
  18 O      9.515246    8.090623    6.593766    ( 0.0000,  0.0000,  0.0000)
  19 H      8.023683    7.415353    5.070280    ( 0.0000,  0.0000,  0.0000)

Unit cell:
           periodic     x           y           z      points  spacing
  1. axis:    no    13.600000    0.000000    0.000000    68     0.2000
  2. axis:    no     0.000000   13.600000    0.000000    68     0.2000
  3. axis:    no     0.000000    0.000000   12.800000    64     0.2000

  Lengths:  13.600000  13.600000  12.800000
  Angles:   90.000000  90.000000  90.000000

Effective grid spacing dv^(1/3) = 0.2000

     iter     time        total  log10-change:
                         energy   eigst   dens
iter:   1 21:37:07  -121.568362
iter:   2 21:37:08  -114.356704   +0.55  -0.70
iter:   3 21:37:10  -112.389532   +0.60  -0.90
iter:   4 21:37:10  -112.123583   -0.22  -1.15
iter:   5 21:37:11  -112.118908   -0.63  -1.53
iter:   6 21:37:12  -112.115557c  -1.09  -2.07
iter:   7 21:37:13  -112.113292c  -1.80  -2.29
iter:   8 21:37:13  -112.111580c  -2.18  -2.46
iter:   9 21:37:14  -112.110833c  -2.61  -2.92
iter:  10 21:37:15  -112.111056c  -3.09  -3.02
iter:  11 21:37:15  -112.111158c  -3.49  -3.54
iter:  12 21:37:15  -112.111180c  -3.89  -3.75
iter:  13 21:37:16  -112.111154c  -4.19  -3.89
iter:  14 21:37:16  -112.111125c  -4.53  -4.14c
iter:  15 21:37:17  -112.111122c  -4.82  -4.37c
iter:  16 21:37:17  -112.111149c  -5.18  -4.77c
iter:  17 21:37:18  -112.111129c  -5.47  -5.03c
iter:  18 21:37:18  -112.111046c  -5.76  -5.23c
iter:  19 21:37:18  -112.111120c  -6.00  -5.55c
iter:  20 21:37:19  -112.111149c  -6.23  -5.67c
iter:  21 21:37:19  -112.111127c  -6.54  -5.78c
iter:  22 21:37:19  -112.111112c  -6.91  -5.90c
iter:  23 21:37:20  -112.111123c  -7.18  -6.14c
iter:  24 21:37:20  -112.111129c  -7.45c -6.22c

Converged after 24 iterations.

Dipole moment: (-1.808560, -0.769524, -1.455676) |e|*Ang

Energy contributions relative to reference atoms: (reference = -21696.578366)

Kinetic:       +110.880756
Potential:     -123.607104
External:        +0.000000
XC:            -102.222361
Entropy (-ST):   +0.000000
Local:           +2.612979
Interactions  
 surf:           +0.224600
--------------------------
Free energy:   -112.111129
Extrapolated:  -112.111129

Solvation cavity surface area: 195.56978
Solvation cavity volume: 208.14329
 Band  Eigenvalues  Occupancy
    0    -25.50739    2.00000
    1    -24.77167    2.00000
    2    -22.82039    2.00000
    3    -20.92170    2.00000
    4    -19.60161    2.00000
    5    -17.92405    2.00000
    6    -16.32322    2.00000
    7    -15.17274    2.00000
    8    -14.75020    2.00000
    9    -14.26617    2.00000
   10    -12.89865    2.00000
   11    -12.25015    2.00000
   12    -11.40141    2.00000
   13    -11.20597    2.00000
   14    -11.05965    2.00000
   15    -10.52224    2.00000
   16    -10.14268    2.00000
   17     -9.84995    2.00000
   18     -9.57161    2.00000
   19     -9.06904    2.00000
   20     -9.02163    2.00000
   21     -8.50003    2.00000
   22     -8.09415    2.00000
   23     -6.15709    2.00000
   24     -5.54828    2.00000
   25     -5.34780    2.00000
   26     -4.89094    2.00000
   27     -1.15576    0.00000
   28     -1.00043    0.00000
   29     -0.49023    0.00000
   30     -0.27503    0.00000
   31     -0.12915    0.00000
   32     -0.03205    0.00000
   33      0.21486    0.00000
   34      0.61726    0.00000
   35      0.70345    0.00000
   36      0.91454    0.00000

Fermi level: -3.02335

Gap: 3.735 eV
Transition (v -> c):
  (s=0, k=0, n=26, [0.00, 0.00, 0.00]) -> (s=0, k=0, n=27, [0.00, 0.00, 0.00])
Input parameters:
  external: {direction: [1. 0. 0.],
             name: ConstantElectricField,
             strength: 0.01169603524229075}

Initialize ...

species:
  N:
    name: Nitrogen
    id: f7500608b86eaa90eef8b1d9a670dc53
    Z: 7.0
    valence: 5
    core: 2
    charge: 0.0
    file: /home/fr/fr_fr/fr_ez1021/source/gpaw-setups/gpaw-setups-0.9.20000/N.PBE.gz
    compensation charges: {type: gauss,
                           rc: 0.18,
                           lmax: 2}
    cutoffs: {filter: 1.11,
              core: 0.96}
    valence states:
      #              energy  rcut
      - 2s(2.00)   -18.583   0.603
      - 2p(3.00)    -7.089   0.529
      -  s           8.629   0.603
      -  p          20.123   0.529
      -  d           0.000   0.577
  
    # Using partial waves for N as LCAO basis

  C:
    name: Carbon
    id: 4aa54d4b901d75f77cc0ea3eec22967b
    Z: 6.0
    valence: 4
    core: 2
    charge: 0.0
    file: /home/fr/fr_fr/fr_ez1021/source/gpaw-setups/gpaw-setups-0.9.20000/C.PBE.gz
    compensation charges: {type: gauss,
                           rc: 0.20,
                           lmax: 2}
    cutoffs: {filter: 1.14,
              core: 1.14}
    valence states:
      #              energy  rcut
      - 2s(2.00)   -13.751   0.635
      - 2p(2.00)    -5.284   0.635
      -  s          13.461   0.635
      -  p          21.927   0.635
      -  d           0.000   0.635
  
    # Using partial waves for C as LCAO basis

  O:
    name: Oxygen
    id: 32ecd46bf208036f09c70b0ec9a88b78
    Z: 8.0
    valence: 6
    core: 2
    charge: 0.0
    file: /home/fr/fr_fr/fr_ez1021/source/gpaw-setups/gpaw-setups-0.9.20000/O.PBE.gz
    compensation charges: {type: gauss,
                           rc: 0.21,
                           lmax: 2}
    cutoffs: {filter: 1.17,
              core: 0.83}
    valence states:
      #              energy  rcut
      - 2s(2.00)   -23.961   0.688
      - 2p(4.00)    -9.029   0.598
      -  s           3.251   0.688
      -  p          18.182   0.598
      -  d           0.000   0.619
  
    # Using partial waves for O as LCAO basis

  H:
    name: Hydrogen
    id: d65de229564ff8ea4db303e23b6d1ecf
    Z: 1.0
    valence: 1
    core: 0
    charge: 0.0
    file: /home/fr/fr_fr/fr_ez1021/source/gpaw-setups/gpaw-setups-0.9.20000/H.PBE.gz
    compensation charges: {type: gauss,
                           rc: 0.15,
                           lmax: 2}
    cutoffs: {filter: 0.85,
              core: 0.53}
    valence states:
      #              energy  rcut
      - 1s(1.00)    -6.494   0.476
      -  s          20.717   0.476
      -  p           0.000   0.476
  
    # Using partial waves for H as LCAO basis

  S:
    name: Sulfur
    id: ca434db9faa07220b7a1d8cb6886b7a9
    Z: 16.0
    valence: 6
    core: 10
    charge: 0.0
    file: /home/fr/fr_fr/fr_ez1021/source/gpaw-setups/gpaw-setups-0.9.20000/S.PBE.gz
    compensation charges: {type: gauss,
                           rc: 0.24,
                           lmax: 2}
    cutoffs: {filter: 1.77,
              core: 1.66}
    valence states:
      #              energy  rcut
      - 3s(2.00)   -17.254   0.974
      - 3p(4.00)    -7.008   0.979
      -  s           9.957   0.974
      -  p          20.203   0.979
      -  d           0.000   0.900
  
    # Using partial waves for S as LCAO basis

Reference energy: -21696.578366  # eV

Spin-paired calculation

Convergence criteria:
 Maximum [total energy] change in last 3 cyles: 0.0005 eV / valence electron
 Maximum integral of absolute [dens]ity change: 0.0001 electrons / valence electron
 Maximum integral of absolute [eigenst]ate change: 4e-08 eV^2 / valence electron
 Maximum number of scf [iter]ations: 333
 (Square brackets indicate name in SCF output, whereas a 'c' in
 the SCF output indicates the quantity has converged.)

Symmetries present (total): 1

  ( 1  0  0)
  ( 0  1  0)
  ( 0  0  1)

1 k-point (Gamma)
1 k-point in the irreducible part of the Brillouin zone
       k-points in crystal coordinates                weights
   0:     0.00000000    0.00000000    0.00000000          1/1

Wave functions: Uniform real-space grid
  Kinetic energy operator: 6*3+1=19 point O(h^6) finite-difference Laplacian
  ScaLapack parameters: grid=1x1, blocksize=None
  Wavefunction extrapolation:
    Improved wavefunction reuse through dual PAW basis 

Occupation numbers: # Zero width 

Eigensolver
   Davidson(niter=2) 

Densities:
  Coarse grid: 68*68*64 grid
  Fine grid: 136*136*128 grid
  Total Charge: 0.000000 

Density mixing:
  Method: separate
  Backend: pulay
  Linear mixing parameter: 0.25
  old densities: 3
  Damping of long wavelength oscillations: 1  # (no daming) 

Hamiltonian:
  XC and Coulomb potentials evaluated on a 136*136*128 grid
  Using the PBE Exchange-Correlation functional
  External potential:
    Constant electric field: (0.012, 0.000, 0.000) V/Ang
  Interpolation: tri-quintic (5. degree polynomial)
  Poisson solver: Jacobi weighted FD solver with dielectric and 4 multi-grid levels
    Coarsest grid: 17 x 17 x 16 points
    Stencil: Weighted Finite Difference Operator
      6*3+1=19 point O(h^6) finite-difference Laplacian
      Finite-difference x-derivative with O(h^6) error (6 points)
      Finite-difference y-derivative with O(h^6) error (6 points)
      Finite-difference z-derivative with O(h^6) error (6 points)
    Max iterations: 1000
    Tolerance: 2.000000e-10

  Solvation:
    Cavity:  EffectivePotentialCavity
      Surface Calculator: GradientSurface with 3 nn
      Volume Calculator: KB51Volume
        compressibility: 72.57860092224
        temperature:     298.15
      EffectivePotentialCavity
        Potential: Power12Potential
          u0: 0.18eV
          pbc_cutoff: 1e-06
          tiny: 1e-10
        temperature: 298.15K    Dielectric:
      Type: LinearDielectric
      Solvent dielectric constant: 1.77    Interaction: SurfaceInteraction
      subscript: surf
      Surface_tension: 0.0011484376791625194 eV/(Angstrom^2)
XC parameters: PBE with 2 nearest neighbor stencil

Memory estimate:
  Process memory now: 263.38 MiB
  Calculator: 48.41 MiB
    Density: 4.81 MiB
      Arrays: 3.44 MiB
      Localized functions: 0.62 MiB
      Mixer: 0.75 MiB
    Hamiltonian: 33.57 MiB
      Arrays: 2.25 MiB
      XC: 0.00 MiB
      Poisson: 2.57 MiB
      vbar: 0.05 MiB
      Solvation: 28.69 MiB
    Wavefunctions: 10.04 MiB
      Arrays psit_nG: 4.62 MiB
      Eigensolver: 5.35 MiB
      Projections: 0.00 MiB
      Projectors: 0.07 MiB

Total number of cores used: 16
Domain decomposition: 2 x 4 x 2

Number of atoms: 20
Number of atomic orbitals: 47
Number of bands in calculation: 37
Number of valence electrons: 54
Bands to converge: occupied

... initialized

Initializing position-dependent things.

Solvation position-dependent initialization:
  Atomic radii for Power12Potential:
    Type    Radius   No. of atoms
       H     1.090     11
       O     1.520     2
       N     1.550     1
       C     1.700     5
       S     1.800     1

Density initialized from atomic densities
Creating initial wave functions:
  37 bands from LCAO basis set

         .--------------------------------.  
        /|                                |  
       / |                                |  
      /  |                                |  
     /   |                                |  
    /    |                                |  
   /     |                                |  
  /      |                                |  
 *       |                 O              |  
 |       |           H                    |  
 |       |     HH     H    C              |  
 |       |       C   H C     O            |  
 |       |                                |  
 |       |     S     H NHH                |  
 |       |   H C  H                       |  
 |       |                                |  
 |       .-----H--------------------------.  
 |      /                                /   
 |     /                                /    
 |    /                                /     
 |   /                                /      
 |  /                                /       
 | /                                /        
 |/                                /         
 *--------------------------------*          

Positions:
   0 N      7.219543    8.036149    5.245440    ( 0.0000,  0.0000,  0.0000)
   1 C      7.116887    8.287450    6.724261    ( 0.0000,  0.0000,  0.0000)
   2 C      8.543175    8.439076    7.324548    ( 0.0000,  0.0000,  0.0000)
   3 O      8.593538    8.871119    8.508715    ( 0.0000,  0.0000,  0.0000)
   4 H      7.384192    8.904248    4.724708    ( 0.0000,  0.0000,  0.0000)
   5 H      6.336610    7.604204    4.894475    ( 0.0000,  0.0000,  0.0000)
   6 H      6.576375    9.234463    6.859775    ( 0.0000,  0.0000,  0.0000)
   7 C      6.355578    7.148881    7.410475    ( 0.0000,  0.0000,  0.0000)
   8 C      4.848581    7.106648    7.156808    ( 0.0000,  0.0000,  0.0000)
   9 S      4.317800    6.719007    5.447589    ( 0.0000,  0.0000,  0.0000)
  10 C      4.717119    4.952703    5.327603    ( 0.0000,  0.0000,  0.0000)
  11 H      6.499024    7.286406    8.491953    ( 0.0000,  0.0000,  0.0000)
  12 H      6.825970    6.186144    7.155106    ( 0.0000,  0.0000,  0.0000)
  13 H      4.401221    8.090348    7.359331    ( 0.0000,  0.0000,  0.0000)
  14 H      4.370491    6.374212    7.823003    ( 0.0000,  0.0000,  0.0000)
  15 H      5.775452    4.767345    5.545318    ( 0.0000,  0.0000,  0.0000)
  16 H      4.508324    4.661367    4.291285    ( 0.0000,  0.0000,  0.0000)
  17 H      4.084754    4.365537    6.005419    ( 0.0000,  0.0000,  0.0000)
  18 O      9.515246    8.090623    6.593766    ( 0.0000,  0.0000,  0.0000)
  19 H      8.023683    7.415353    5.070280    ( 0.0000,  0.0000,  0.0000)

Unit cell:
           periodic     x           y           z      points  spacing
  1. axis:    no    13.600000    0.000000    0.000000    68     0.2000
  2. axis:    no     0.000000   13.600000    0.000000    68     0.2000
  3. axis:    no     0.000000    0.000000   12.800000    64     0.2000

  Lengths:  13.600000  13.600000  12.800000
  Angles:   90.000000  90.000000  90.000000

Effective grid spacing dv^(1/3) = 0.2000

     iter     time        total  log10-change:
                         energy   eigst   dens
iter:   1 21:37:23  -121.540417
iter:   2 21:37:25  -114.334532   +0.55  -0.70
iter:   3 21:37:26  -112.367815   +0.60  -0.90
iter:   4 21:37:27  -112.102442   -0.22  -1.15
iter:   5 21:37:28  -112.097837   -0.63  -1.53
iter:   6 21:37:29  -112.094489c  -1.09  -2.07
iter:   7 21:37:29  -112.092226c  -1.80  -2.29
iter:   8 21:37:30  -112.090512c  -2.18  -2.46
iter:   9 21:37:31  -112.089775c  -2.60  -2.92
iter:  10 21:37:31  -112.089995c  -3.09  -3.02
iter:  11 21:37:32  -112.090096c  -3.48  -3.54
iter:  12 21:37:32  -112.090119c  -3.89  -3.75
iter:  13 21:37:32  -112.090094c  -4.18  -3.89
iter:  14 21:37:33  -112.090065c  -4.53  -4.14c
iter:  15 21:37:33  -112.090063c  -4.82  -4.38c
iter:  16 21:37:34  -112.090089c  -5.17  -4.78c
iter:  17 21:37:34  -112.090068c  -5.46  -5.04c
iter:  18 21:37:35  -112.089988c  -5.75  -5.23c
iter:  19 21:37:35  -112.090061c  -5.99  -5.57c
iter:  20 21:37:35  -112.090090c  -6.21  -5.68c
iter:  21 21:37:36  -112.090068c  -6.52  -5.79c
iter:  22 21:37:36  -112.090055c  -6.89  -5.90c
iter:  23 21:37:36  -112.090064c  -7.17  -6.16c
iter:  24 21:37:37  -112.090069c  -7.40c -6.23c

Converged after 24 iterations.

Dipole moment: (-1.792555, -0.767915, -1.454746) |e|*Ang

Energy contributions relative to reference atoms: (reference = -21696.578366)

Kinetic:       +110.885945
Potential:     -123.614425
External:        +0.020966
XC:            -102.219963
Entropy (-ST):   +0.000000
Local:           +2.612809
Interactions  
 surf:           +0.224600
--------------------------
Free energy:   -112.090069
Extrapolated:  -112.090069

Solvation cavity surface area: 195.56978
Solvation cavity volume: 208.14329
 Band  Eigenvalues  Occupancy
    0    -25.49887    2.00000
    1    -24.76098    2.00000
    2    -22.80349    2.00000
    3    -20.93783    2.00000
    4    -19.61184    2.00000
    5    -17.93532    2.00000
    6    -16.33350    2.00000
    7    -15.18144    2.00000
    8    -14.74773    2.00000
    9    -14.27107    2.00000
   10    -12.89701    2.00000
   11    -12.25257    2.00000
   12    -11.41801    2.00000
   13    -11.21484    2.00000
[...]
                         energy   eigst   dens
iter:   1 21:45:30  -121.559968
iter:   2 21:45:31  -114.345606   +0.55  -0.70
iter:   3 21:45:33  -112.378687   +0.60  -0.90
iter:   4 21:45:34  -112.112711   -0.22  -1.15
iter:   5 21:45:35  -112.108039   -0.63  -1.53
iter:   6 21:45:36  -112.104723c  -1.09  -2.07
iter:   7 21:45:36  -112.102454c  -1.80  -2.29
iter:   8 21:45:37  -112.100739c  -2.18  -2.46
iter:   9 21:45:37  -112.099990c  -2.60  -2.92
iter:  10 21:45:38  -112.100212c  -3.09  -3.02
iter:  11 21:45:38  -112.100316c  -3.48  -3.54
iter:  12 21:45:39  -112.100341c  -3.89  -3.75
iter:  13 21:45:39  -112.100315c  -4.18  -3.89
iter:  14 21:45:40  -112.100284c  -4.53  -4.14c
iter:  15 21:45:40  -112.100281c  -4.82  -4.38c
iter:  16 21:45:41  -112.100309c  -5.18  -4.78c
iter:  17 21:45:41  -112.100288c  -5.46  -5.04c
iter:  18 21:45:41  -112.100211c  -5.76  -5.23c
iter:  19 21:45:42  -112.100278c  -6.00  -5.57c
iter:  20 21:45:42  -112.100309c  -6.23  -5.68c
iter:  21 21:45:43  -112.100286c  -6.54  -5.80c
iter:  22 21:45:43  -112.100274c  -6.91  -5.92c
iter:  23 21:45:43  -112.100283c  -7.18  -6.16c
iter:  24 21:45:44  -112.100287c  -7.42c -6.23c

Converged after 24 iterations.

Dipole moment: (-1.806600, -0.752835, -1.453731) |e|*Ang

Energy contributions relative to reference atoms: (reference = -21696.578366)

Kinetic:       +110.885597
Potential:     -123.612141
External:        +0.010722
XC:            -102.222054
Entropy (-ST):   +0.000000
Local:           +2.612990
Interactions  
 surf:           +0.224600
--------------------------
Free energy:   -112.100287
Extrapolated:  -112.100287

Solvation cavity surface area: 195.56978
Solvation cavity volume: 208.14329
 Band  Eigenvalues  Occupancy
    0    -25.49030    2.00000
    1    -24.75359    2.00000
    2    -22.79994    2.00000
    3    -20.92129    2.00000
    4    -19.59942    2.00000
    5    -17.92229    2.00000
    6    -16.32167    2.00000
    7    -15.16627    2.00000
    8    -14.73625    2.00000
    9    -14.25676    2.00000
   10    -12.88471    2.00000
   11    -12.24032    2.00000
   12    -11.40659    2.00000
   13    -11.20026    2.00000
   14    -11.06799    2.00000
   15    -10.51975    2.00000
   16    -10.14333    2.00000
   17     -9.84277    2.00000
   18     -9.55899    2.00000
   19     -9.05082    2.00000
   20     -9.01660    2.00000
   21     -8.48378    2.00000
   22     -8.09527    2.00000
   23     -6.15837    2.00000
   24     -5.52749    2.00000
   25     -5.32938    2.00000
   26     -4.86942    2.00000
   27     -1.14587    0.00000
   28     -0.99990    0.00000
   29     -0.49507    0.00000
   30     -0.26655    0.00000
   31     -0.11835    0.00000
   32     -0.03503    0.00000
   33      0.21367    0.00000
   34      0.61784    0.00000
   35      0.70929    0.00000
   36      0.91007    0.00000

Fermi level: -3.00764

Gap: 3.724 eV
Transition (v -> c):
  (s=0, k=0, n=26, [0.00, 0.00, 0.00]) -> (s=0, k=0, n=27, [0.00, 0.00, 0.00])
Input parameters:
  external: {direction: [0. 0. 1.],
             name: ConstantElectricField,
             strength: 0.014241728741185978}

Initialize ...

species:
  N:
    name: Nitrogen
    id: f7500608b86eaa90eef8b1d9a670dc53
    Z: 7.0
    valence: 5
    core: 2
    charge: 0.0
    file: /home/fr/fr_fr/fr_ez1021/source/gpaw-setups/gpaw-setups-0.9.20000/N.PBE.gz
    compensation charges: {type: gauss,
                           rc: 0.18,
                           lmax: 2}
    cutoffs: {filter: 1.11,
              core: 0.96}
    valence states:
      #              energy  rcut
      - 2s(2.00)   -18.583   0.603
      - 2p(3.00)    -7.089   0.529
      -  s           8.629   0.603
      -  p          20.123   0.529
      -  d           0.000   0.577
  
    # Using partial waves for N as LCAO basis

  C:
    name: Carbon
    id: 4aa54d4b901d75f77cc0ea3eec22967b
    Z: 6.0
    valence: 4
    core: 2
    charge: 0.0
    file: /home/fr/fr_fr/fr_ez1021/source/gpaw-setups/gpaw-setups-0.9.20000/C.PBE.gz
    compensation charges: {type: gauss,
                           rc: 0.20,
                           lmax: 2}
    cutoffs: {filter: 1.14,
              core: 1.14}
    valence states:
      #              energy  rcut
      - 2s(2.00)   -13.751   0.635
      - 2p(2.00)    -5.284   0.635
      -  s          13.461   0.635
      -  p          21.927   0.635
      -  d           0.000   0.635
  
    # Using partial waves for C as LCAO basis

  O:
    name: Oxygen
    id: 32ecd46bf208036f09c70b0ec9a88b78
    Z: 8.0
    valence: 6
    core: 2
    charge: 0.0
    file: /home/fr/fr_fr/fr_ez1021/source/gpaw-setups/gpaw-setups-0.9.20000/O.PBE.gz
    compensation charges: {type: gauss,
                           rc: 0.21,
                           lmax: 2}
    cutoffs: {filter: 1.17,
              core: 0.83}
    valence states:
      #              energy  rcut
      - 2s(2.00)   -23.961   0.688
      - 2p(4.00)    -9.029   0.598
      -  s           3.251   0.688
      -  p          18.182   0.598
      -  d           0.000   0.619
  
    # Using partial waves for O as LCAO basis

  H:
    name: Hydrogen
    id: d65de229564ff8ea4db303e23b6d1ecf
    Z: 1.0
    valence: 1
    core: 0
    charge: 0.0
    file: /home/fr/fr_fr/fr_ez1021/source/gpaw-setups/gpaw-setups-0.9.20000/H.PBE.gz
    compensation charges: {type: gauss,
                           rc: 0.15,
                           lmax: 2}
    cutoffs: {filter: 0.85,
              core: 0.53}
    valence states:
      #              energy  rcut
      - 1s(1.00)    -6.494   0.476
      -  s          20.717   0.476
      -  p           0.000   0.476
  
    # Using partial waves for H as LCAO basis

  S:
    name: Sulfur
    id: ca434db9faa07220b7a1d8cb6886b7a9
    Z: 16.0
    valence: 6
    core: 10
    charge: 0.0
    file: /home/fr/fr_fr/fr_ez1021/source/gpaw-setups/gpaw-setups-0.9.20000/S.PBE.gz
    compensation charges: {type: gauss,
                           rc: 0.24,
                           lmax: 2}
    cutoffs: {filter: 1.77,
              core: 1.66}
    valence states:
      #              energy  rcut
      - 3s(2.00)   -17.254   0.974
      - 3p(4.00)    -7.008   0.979
      -  s           9.957   0.974
      -  p          20.203   0.979
      -  d           0.000   0.900
  
    # Using partial waves for S as LCAO basis

Reference energy: -21696.578366  # eV

Spin-paired calculation

Convergence criteria:
 Maximum [total energy] change in last 3 cyles: 0.0005 eV / valence electron
 Maximum integral of absolute [dens]ity change: 0.0001 electrons / valence electron
 Maximum integral of absolute [eigenst]ate change: 4e-08 eV^2 / valence electron
 Maximum number of scf [iter]ations: 333
 (Square brackets indicate name in SCF output, whereas a 'c' in
 the SCF output indicates the quantity has converged.)

Symmetries present (total): 1

  ( 1  0  0)
  ( 0  1  0)
  ( 0  0  1)

1 k-point (Gamma)
1 k-point in the irreducible part of the Brillouin zone
       k-points in crystal coordinates                weights
   0:     0.00000000    0.00000000    0.00000000          1/1

Wave functions: Uniform real-space grid
  Kinetic energy operator: 6*3+1=19 point O(h^6) finite-difference Laplacian
  ScaLapack parameters: grid=1x1, blocksize=None
  Wavefunction extrapolation:
    Improved wavefunction reuse through dual PAW basis 

Occupation numbers: # Zero width 

Eigensolver
   Davidson(niter=2) 

Densities:
  Coarse grid: 68*68*64 grid
  Fine grid: 136*136*128 grid
  Total Charge: 0.000000 

Density mixing:
  Method: separate
  Backend: pulay
  Linear mixing parameter: 0.25
  old densities: 3
  Damping of long wavelength oscillations: 1  # (no daming) 

Hamiltonian:
  XC and Coulomb potentials evaluated on a 136*136*128 grid
  Using the PBE Exchange-Correlation functional
  External potential:
    Constant electric field: (0.000, 0.000, 0.014) V/Ang
  Interpolation: tri-quintic (5. degree polynomial)
  Poisson solver: Jacobi weighted FD solver with dielectric and 4 multi-grid levels
    Coarsest grid: 17 x 17 x 16 points
    Stencil: Weighted Finite Difference Operator
      6*3+1=19 point O(h^6) finite-difference Laplacian
      Finite-difference x-derivative with O(h^6) error (6 points)
      Finite-difference y-derivative with O(h^6) error (6 points)
      Finite-difference z-derivative with O(h^6) error (6 points)
    Max iterations: 1000
    Tolerance: 2.000000e-10

  Solvation:
    Cavity:  EffectivePotentialCavity
      Surface Calculator: GradientSurface with 3 nn
      Volume Calculator: KB51Volume
        compressibility: 72.57860092224
        temperature:     298.15
      EffectivePotentialCavity
        Potential: Power12Potential
          u0: 0.18eV
          pbc_cutoff: 1e-06
          tiny: 1e-10
        temperature: 298.15K    Dielectric:
      Type: LinearDielectric
      Solvent dielectric constant: 1.77    Interaction: SurfaceInteraction
      subscript: surf
      Surface_tension: 0.0011484376791625194 eV/(Angstrom^2)
XC parameters: PBE with 2 nearest neighbor stencil

Memory estimate:
  Process memory now: 294.28 MiB
  Calculator: 48.41 MiB
    Density: 4.81 MiB
      Arrays: 3.44 MiB
      Localized functions: 0.62 MiB
      Mixer: 0.75 MiB
    Hamiltonian: 33.57 MiB
      Arrays: 2.25 MiB
      XC: 0.00 MiB
      Poisson: 2.57 MiB
      vbar: 0.05 MiB
      Solvation: 28.69 MiB
    Wavefunctions: 10.04 MiB
      Arrays psit_nG: 4.62 MiB
      Eigensolver: 5.35 MiB
      Projections: 0.00 MiB
      Projectors: 0.07 MiB

Total number of cores used: 16
Domain decomposition: 2 x 4 x 2

Number of atoms: 20
Number of atomic orbitals: 47
Number of bands in calculation: 37
Number of valence electrons: 54
Bands to converge: occupied

... initialized

Initializing position-dependent things.

Solvation position-dependent initialization:
  Atomic radii for Power12Potential:
    Type    Radius   No. of atoms
       H     1.090     11
       O     1.520     2
       N     1.550     1
       C     1.700     5
       S     1.800     1

Density initialized from atomic densities
Creating initial wave functions:
  37 bands from LCAO basis set

         .--------------------------------.  
        /|                                |  
       / |                                |  
      /  |                                |  
     /   |                                |  
    /    |                                |  
   /     |                                |  
  /      |                                |  
 *       |                 O              |  
 |       |           H                    |  
 |       |     HH     H    C              |  
 |       |       C   H C     O            |  
 |       |                                |  
 |       |     S     H NHH                |  
 |       |   H C  H                       |  
 |       |                                |  
 |       .-----H--------------------------.  
 |      /                                /   
 |     /                                /    
 |    /                                /     
 |   /                                /      
 |  /                                /       
 | /                                /        
 |/                                /         
 *--------------------------------*          

Positions:
   0 N      7.219543    8.036149    5.245440    ( 0.0000,  0.0000,  0.0000)
   1 C      7.116887    8.287450    6.724261    ( 0.0000,  0.0000,  0.0000)
   2 C      8.543175    8.439076    7.324548    ( 0.0000,  0.0000,  0.0000)
   3 O      8.593538    8.871119    8.508715    ( 0.0000,  0.0000,  0.0000)
   4 H      7.384192    8.904248    4.724708    ( 0.0000,  0.0000,  0.0000)
   5 H      6.336610    7.604204    4.894475    ( 0.0000,  0.0000,  0.0000)
   6 H      6.576375    9.234463    6.859775    ( 0.0000,  0.0000,  0.0000)
   7 C      6.355578    7.148881    7.410475    ( 0.0000,  0.0000,  0.0000)
   8 C      4.848581    7.106648    7.156808    ( 0.0000,  0.0000,  0.0000)
   9 S      4.317800    6.719007    5.447589    ( 0.0000,  0.0000,  0.0000)
  10 C      4.717119    4.952703    5.327603    ( 0.0000,  0.0000,  0.0000)
  11 H      6.499024    7.286406    8.491953    ( 0.0000,  0.0000,  0.0000)
  12 H      6.825970    6.186144    7.155106    ( 0.0000,  0.0000,  0.0000)
  13 H      4.401221    8.090348    7.359331    ( 0.0000,  0.0000,  0.0000)
  14 H      4.370491    6.374212    7.823003    ( 0.0000,  0.0000,  0.0000)
  15 H      5.775452    4.767345    5.545318    ( 0.0000,  0.0000,  0.0000)
  16 H      4.508324    4.661367    4.291285    ( 0.0000,  0.0000,  0.0000)
  17 H      4.084754    4.365537    6.005419    ( 0.0000,  0.0000,  0.0000)
  18 O      9.515246    8.090623    6.593766    ( 0.0000,  0.0000,  0.0000)
  19 H      8.023683    7.415353    5.070280    ( 0.0000,  0.0000,  0.0000)

Unit cell:
           periodic     x           y           z      points  spacing
  1. axis:    no    13.600000    0.000000    0.000000    68     0.2000
  2. axis:    no     0.000000   13.600000    0.000000    68     0.2000
  3. axis:    no     0.000000    0.000000   12.800000    64     0.2000

  Lengths:  13.600000  13.600000  12.800000
  Angles:   90.000000  90.000000  90.000000

Effective grid spacing dv^(1/3) = 0.2000

     iter     time        total  log10-change:
                         energy   eigst   dens
iter:   1 21:45:47  -121.535957
iter:   2 21:45:48  -114.333691   +0.55  -0.70
iter:   3 21:45:50  -112.368712   +0.60  -0.90
iter:   4 21:45:50  -112.102999   -0.22  -1.15
iter:   5 21:45:51  -112.098309   -0.63  -1.53
iter:   6 21:45:52  -112.094946c  -1.09  -2.07
iter:   7 21:45:53  -112.092684c  -1.80  -2.29
iter:   8 21:45:54  -112.090978c  -2.18  -2.46
iter:   9 21:45:54  -112.090229c  -2.61  -2.92
iter:  10 21:45:55  -112.090452c  -3.09  -3.02
iter:  11 21:45:55  -112.090558c  -3.49  -3.54
iter:  12 21:45:56  -112.090581c  -3.89  -3.75
iter:  13 21:45:56  -112.090554c  -4.19  -3.89
iter:  14 21:45:57  -112.090524c  -4.53  -4.15c
iter:  15 21:45:57  -112.090521c  -4.83  -4.37c
iter:  16 21:45:57  -112.090549c  -5.18  -4.77c
iter:  17 21:45:58  -112.090530c  -5.47  -5.02c
iter:  18 21:45:58  -112.090449c  -5.76  -5.22c
iter:  19 21:45:59  -112.090519c  -6.01  -5.53c
iter:  20 21:45:59  -112.090547c  -6.24  -5.65c
iter:  21 21:45:59  -112.090525c  -6.55  -5.78c
iter:  22 21:46:00  -112.090509c  -6.91  -5.91c
iter:  23 21:46:00  -112.090522c  -7.18  -6.13c
iter:  24 21:46:00  -112.090530c  -7.47c -6.22c

Converged after 24 iterations.

Dipole moment: (-1.807425, -0.767578, -1.437305) |e|*Ang

Energy contributions relative to reference atoms: (reference = -21696.578366)

Kinetic:       +110.888612
Potential:     -123.617195
External:        +0.020470
XC:            -102.219846
Entropy (-ST):   +0.000000
Local:           +2.612830
Interactions  
 surf:           +0.224600
--------------------------
Free energy:   -112.090530
Extrapolated:  -112.090530

Solvation cavity surface area: 195.56978
Solvation cavity volume: 208.14329
 Band  Eigenvalues  Occupancy
    0    -25.50659    2.00000
    1    -24.76833    2.00000
    2    -22.80921    2.00000
    3    -20.92268    2.00000
    4    -19.60286    2.00000
    5    -17.92563    2.00000
    6    -16.32460    2.00000
    7    -15.17577    2.00000
    8    -14.75584    2.00000
    9    -14.27008    2.00000
   10    -12.89720    2.00000
   11    -12.24640    2.00000
   12    -11.40477    2.00000
   13    -11.20602    2.00000
   14    -11.06463    2.00000
   15    -10.51934    2.00000
   16    -10.14325    2.00000
   17     -9.84631    2.00000
   18     -9.56485    2.00000
   19     -9.05811    2.00000
   20     -9.01800    2.00000
   21     -8.49175    2.00000
   22     -8.09872    2.00000
   23     -6.16397    2.00000
   24     -5.53634    2.00000
   25     -5.34021    2.00000
   26     -4.87701    2.00000
   27     -1.17674    0.00000
   28     -1.01161    0.00000
   29     -0.48472    0.00000
   30     -0.28317    0.00000
   31     -0.13553    0.00000
   32     -0.02988    0.00000
   33      0.21568    0.00000
   34      0.61838    0.00000
   35      0.70099    0.00000
   36      0.91330    0.00000

Fermi level: -3.02687

Gap: 3.700 eV
Transition (v -> c):
  (s=0, k=0, n=26, [0.00, 0.00, 0.00]) -> (s=0, k=0, n=27, [0.00, 0.00, 0.00])
Input parameters:
  external: None

Timing:                              incl.     excl.
-----------------------------------------------------------
Hamiltonian:                        78.910    13.183   2.2% ||
 Atomic:                             1.241     0.023   0.0% |
  XC Correction:                     1.218     1.218   0.2% |
 Hartree integrate/restrict:         0.118     0.118   0.0% |
 Initialize Hamiltonian:             1.151     1.151   0.2% |
 Poisson:                           61.551    61.551  10.2% |---|
 XC 3D grid:                         1.630     1.630   0.3% |
 vbar:                               0.035     0.035   0.0% |
LCAO initialization:                15.160    12.688   2.1% ||
 LCAO eigensolver:                   0.746     0.003   0.0% |
  Calculate projections:             0.001     0.001   0.0% |
  DenseAtomicCorrection:             0.001     0.001   0.0% |
  Distribute overlap matrix:         0.665     0.665   0.1% |
  Orbital Layouts:                   0.027     0.027   0.0% |
  Potential matrix:                  0.049     0.049   0.0% |
 LCAO to grid:                       0.383     0.383   0.1% |
 Set positions (LCAO WFS):           1.344     1.012   0.2% |
  Basic WFS set positions:           0.026     0.026   0.0% |
  Basis functions set positions:     0.004     0.004   0.0% |
  P tci:                             0.011     0.011   0.0% |
  ST tci:                            0.101     0.101   0.0% |
  mktci:                             0.191     0.191   0.0% |
SCF-cycle:                         499.879     0.697   0.1% |
 Davidson:                         176.867    62.519  10.3% |---|
  Apply hamiltonian:                14.807    14.807   2.5% ||
  Subspace diag:                    25.362     0.112   0.0% |
   calc_h_matrix:                   16.202     2.680   0.4% |
    Apply hamiltonian:              13.522    13.522   2.2% ||
   diagonalize:                      2.025     2.025   0.3% |
   rotate_psi:                       7.023     7.023   1.2% |
  calc. matrices:                   59.095    23.019   3.8% |-|
   Apply hamiltonian:               36.076    36.076   6.0% |-|
  diagonalize:                       1.821     1.821   0.3% |
  rotate_psi:                       13.263    13.263   2.2% ||
 Density:                            6.047     0.019   0.0% |
  Atomic density matrices:           1.213     1.213   0.2% |
  Mix:                               3.746     3.746   0.6% |
  Multipole moments:                 0.157     0.157   0.0% |
  Pseudo density:                    0.912     0.898   0.1% |
   Symmetrize density:               0.013     0.013   0.0% |
 Hamiltonian:                      314.347    17.732   2.9% ||
  Atomic:                           28.768     0.564   0.1% |
   XC Correction:                   28.204    28.204   4.7% |-|
  Hartree integrate/restrict:        2.480     2.480   0.4% |
  Poisson:                         228.422   228.422  37.8% |--------------|
  XC 3D grid:                       36.464    36.464   6.0% |-|
  vbar:                              0.482     0.482   0.1% |
 Orthonormalize:                     1.921     0.005   0.0% |
  calc_s_matrix:                     0.074     0.074   0.0% |
  inverse-cholesky:                  1.657     1.657   0.3% |
  projections:                       0.001     0.001   0.0% |
  rotate_psi_s:                      0.184     0.184   0.0% |
Set symmetry:                        0.032     0.032   0.0% |
Other:                              10.274    10.274   1.7% ||
-----------------------------------------------------------
Total:                                       604.255 100.0%

Memory usage: 294.28 MiB
Date: Fri Oct  6 21:46:00 2023
