
  ___ ___ ___ _ _ _  
 |   |   |_  | | | | 
 | | | | | . | | | | 
 |__ |  _|___|_____|  23.9.2b1
 |___|_|             

User:   fr_ez1021@n0430
Date:   Fri Oct  6 21:49:20 2023
Arch:   x86_64
Pid:    3884337
CWD:    /lustre/home/fr/fr_fr/fr_ez1021/sims/amino_acids_publish/scripts
Python: 3.8.3
gpaw:   /home/fr/fr_fr/fr_ez1021/source/origin/gpaw/gpaw (68657f1768)
_gpaw:  /home/fr/fr_fr/fr_ez1021/source/origin/gpaw/build/lib.linux-x86_64-3.8/
        _gpaw.cpython-38-x86_64-linux-gnu.so (d6c5f22bb1)
ase:    /home/fr/fr_fr/fr_ez1021/source/origin/ase/ase (version 3.23.0b1-4bd916e410)
numpy:  /opt/bwhpc/common/numlib/python_numpy/1.19.0_python-3.8.3/lib/python3.8/site-packages/numpy-1.19.0-py3.8-linux-x86_64.egg/numpy (version 1.19.0)
scipy:  /opt/bwhpc/common/numlib/python_scipy/1.5.0_numpy-1.19.0_python-3.8.3/lib/python3.8/site-packages/scipy-1.5.0-py3.8-linux-x86_64.egg/scipy (version 1.5.0)
libxc:  5.1.7
units:  Angstrom and eV
cores: 16
OpenMP: False
OMP_NUM_THREADS: 1

Input parameters:
  mode: fd
  xc: PBE

Implicit solvation parameters:
Cavity:  EffectivePotentialCavity
  Surface Calculator: GradientSurface with 3 nn
  Volume Calculator: KB51Volume
    compressibility: 72.57860092224
    temperature:     298.15
  EffectivePotentialCavity
    Potential: Power12Potential
      u0: 0.18eV
      pbc_cutoff: 1e-06
      tiny: 1e-10
    temperature: 298.15K
Dielectric:
  Type: LinearDielectric
  Solvent dielectric constant: 1.77
Interaction: SurfaceInteraction
  subscript: surf
  Surface_tension: 0.0011484376791625194 eV/(Angstrom^2)

System changes: positions, numbers, cell, pbc, initial_charges, initial_magmoms 

Initialize ...

species:
  N:
    name: Nitrogen
    id: f7500608b86eaa90eef8b1d9a670dc53
    Z: 7.0
    valence: 5
    core: 2
    charge: 0.0
    file: /home/fr/fr_fr/fr_ez1021/source/gpaw-setups/gpaw-setups-0.9.20000/N.PBE.gz
    compensation charges: {type: gauss,
                           rc: 0.18,
                           lmax: 2}
    cutoffs: {filter: 1.11,
              core: 0.96}
    valence states:
      #              energy  rcut
      - 2s(2.00)   -18.583   0.603
      - 2p(3.00)    -7.089   0.529
      -  s           8.629   0.603
      -  p          20.123   0.529
      -  d           0.000   0.577
  
    # Using partial waves for N as LCAO basis

  C:
    name: Carbon
    id: 4aa54d4b901d75f77cc0ea3eec22967b
    Z: 6.0
    valence: 4
    core: 2
    charge: 0.0
    file: /home/fr/fr_fr/fr_ez1021/source/gpaw-setups/gpaw-setups-0.9.20000/C.PBE.gz
    compensation charges: {type: gauss,
                           rc: 0.20,
                           lmax: 2}
    cutoffs: {filter: 1.14,
              core: 1.14}
    valence states:
      #              energy  rcut
      - 2s(2.00)   -13.751   0.635
      - 2p(2.00)    -5.284   0.635
      -  s          13.461   0.635
      -  p          21.927   0.635
      -  d           0.000   0.635
  
    # Using partial waves for C as LCAO basis

  O:
    name: Oxygen
    id: 32ecd46bf208036f09c70b0ec9a88b78
    Z: 8.0
    valence: 6
    core: 2
    charge: 0.0
    file: /home/fr/fr_fr/fr_ez1021/source/gpaw-setups/gpaw-setups-0.9.20000/O.PBE.gz
    compensation charges: {type: gauss,
                           rc: 0.21,
                           lmax: 2}
    cutoffs: {filter: 1.17,
              core: 0.83}
    valence states:
      #              energy  rcut
      - 2s(2.00)   -23.961   0.688
      - 2p(4.00)    -9.029   0.598
      -  s           3.251   0.688
      -  p          18.182   0.598
      -  d           0.000   0.619
  
    # Using partial waves for O as LCAO basis

  H:
    name: Hydrogen
    id: d65de229564ff8ea4db303e23b6d1ecf
    Z: 1.0
    valence: 1
    core: 0
    charge: 0.0
    file: /home/fr/fr_fr/fr_ez1021/source/gpaw-setups/gpaw-setups-0.9.20000/H.PBE.gz
    compensation charges: {type: gauss,
                           rc: 0.15,
                           lmax: 2}
    cutoffs: {filter: 0.85,
              core: 0.53}
    valence states:
      #              energy  rcut
      - 1s(1.00)    -6.494   0.476
      -  s          20.717   0.476
      -  p           0.000   0.476
  
    # Using partial waves for H as LCAO basis

Reference energy: -10774.593890  # eV

Spin-paired calculation

Convergence criteria:
 Maximum [total energy] change in last 3 cyles: 0.0005 eV / valence electron
 Maximum integral of absolute [dens]ity change: 0.0001 electrons / valence electron
 Maximum integral of absolute [eigenst]ate change: 4e-08 eV^2 / valence electron
 Maximum number of scf [iter]ations: 333
 (Square brackets indicate name in SCF output, whereas a 'c' in
 the SCF output indicates the quantity has converged.)

Symmetries present (total): 1

  ( 1  0  0)
  ( 0  1  0)
  ( 0  0  1)

1 k-point (Gamma)
1 k-point in the irreducible part of the Brillouin zone
       k-points in crystal coordinates                weights
   0:     0.00000000    0.00000000    0.00000000          1/1

Wave functions: Uniform real-space grid
  Kinetic energy operator: 6*3+1=19 point O(h^6) finite-difference Laplacian
  ScaLapack parameters: grid=1x1, blocksize=None
  Wavefunction extrapolation:
    Improved wavefunction reuse through dual PAW basis 

Occupation numbers: # Zero width 

Eigensolver
   Davidson(niter=2) 

Densities:
  Coarse grid: 64*60*60 grid
  Fine grid: 128*120*120 grid
  Total Charge: 0.000000 

Density mixing:
  Method: separate
  Backend: pulay
  Linear mixing parameter: 0.25
  old densities: 3
  Damping of long wavelength oscillations: 1  # (no daming) 

Hamiltonian:
  XC and Coulomb potentials evaluated on a 128*120*120 grid
  Using the PBE Exchange-Correlation functional
  Interpolation: tri-quintic (5. degree polynomial)
  Poisson solver: Jacobi weighted FD solver with dielectric and 4 multi-grid levels
    Coarsest grid: 16 x 15 x 15 points
    Stencil: Weighted Finite Difference Operator
      6*3+1=19 point O(h^6) finite-difference Laplacian
      Finite-difference x-derivative with O(h^6) error (6 points)
      Finite-difference y-derivative with O(h^6) error (6 points)
      Finite-difference z-derivative with O(h^6) error (6 points)
    Max iterations: 1000
    Tolerance: 2.000000e-10

  Solvation:
    Cavity:  EffectivePotentialCavity
      Surface Calculator: GradientSurface with 3 nn
      Volume Calculator: KB51Volume
        compressibility: 72.57860092224
        temperature:     298.15
      EffectivePotentialCavity
        Potential: Power12Potential
          u0: 0.18eV
          pbc_cutoff: 1e-06
          tiny: 1e-10
        temperature: 298.15K    Dielectric:
      Type: LinearDielectric
      Solvent dielectric constant: 1.77    Interaction: SurfaceInteraction
      subscript: surf
      Surface_tension: 0.0011484376791625194 eV/(Angstrom^2)
XC parameters: PBE with 2 nearest neighbor stencil

Memory estimate:
  Process memory now: 164.77 MiB
  Calculator: 36.00 MiB
    Density: 3.63 MiB
      Arrays: 2.66 MiB
      Localized functions: 0.39 MiB
      Mixer: 0.58 MiB
    Hamiltonian: 26.00 MiB
      Arrays: 1.74 MiB
      XC: 0.00 MiB
      Poisson: 1.99 MiB
      vbar: 0.03 MiB
      Solvation: 22.23 MiB
    Wavefunctions: 6.37 MiB
      Arrays psit_nG: 2.89 MiB
      Eigensolver: 3.44 MiB
      Projections: 0.00 MiB
      Projectors: 0.04 MiB

Total number of cores used: 16
Domain decomposition: 4 x 2 x 2

Number of atoms: 14
Number of atomic orbitals: 35
Number of bands in calculation: 30
Number of valence electrons: 42
Bands to converge: occupied

... initialized

Initializing position-dependent things.

Solvation position-dependent initialization:
  Atomic radii for Power12Potential:
    Type    Radius   No. of atoms
       H     1.090     7
       O     1.520     3
       N     1.550     1
       C     1.700     3

Density initialized from atomic densities
Creating initial wave functions:
  30 bands from LCAO basis set

        .------------------------------.  
       /|                              |  
      / |                              |  
     /  |                              |  
    /   |                              |  
   /    |                              |  
  /     |                              |  
 *      |                              |  
 |      |               O              |  
 |      |        H                     |  
 |      |        C  C  C               |  
 |      |     HH O       O             |  
 |      |           N                  |  
 |      |          H   H               |  
 |      |                              |  
 |      .------------------------------.  
 |     /                              /   
 |    /                              /    
 |   /                              /     
 |  /                              /      
 | /                              /       
 |/                              /        
 *------------------------------*         

Positions:
   0 N      6.367538    6.405185    4.628490    ( 0.0000,  0.0000,  0.0000)
   1 C      6.280376    6.759805    6.081131    ( 0.0000,  0.0000,  0.0000)
   2 C      7.671979    6.481343    6.734267    ( 0.0000,  0.0000,  0.0000)
   3 O      7.731171    6.588576    7.985724    ( 0.0000,  0.0000,  0.0000)
   4 H      5.980765    5.466145    4.465812    ( 0.0000,  0.0000,  0.0000)
   5 H      7.381492    6.370640    4.404470    ( 0.0000,  0.0000,  0.0000)
   6 H      6.097800    7.840892    6.146631    ( 0.0000,  0.0000,  0.0000)
   7 C      5.126051    6.028199    6.736264    ( 0.0000,  0.0000,  0.0000)
   8 O      5.365743    4.617341    6.620476    ( 0.0000,  0.0000,  0.0000)
   9 H      4.182366    6.298693    6.238770    ( 0.0000,  0.0000,  0.0000)
  10 H      5.073777    6.345134    7.788176    ( 0.0000,  0.0000,  0.0000)
  11 H      4.514594    4.159108    6.736367    ( 0.0000,  0.0000,  0.0000)
  12 O      8.617634    6.217250    5.933351    ( 0.0000,  0.0000,  0.0000)
  13 H      5.886465    7.069977    4.014276    ( 0.0000,  0.0000,  0.0000)

Unit cell:
           periodic     x           y           z      points  spacing
  1. axis:    no    12.800000    0.000000    0.000000    64     0.2000
  2. axis:    no     0.000000   12.000000    0.000000    60     0.2000
  3. axis:    no     0.000000    0.000000   12.000000    60     0.2000

  Lengths:  12.800000  12.000000  12.000000
  Angles:   90.000000  90.000000  90.000000

Effective grid spacing dv^(1/3) = 0.2000

     iter     time        total  log10-change:
                         energy   eigst   dens
iter:   1 21:49:22   -89.197845
iter:   2 21:49:23   -83.896645   +0.60  -0.74
iter:   3 21:49:24   -82.543464   +0.49  -0.94
iter:   4 21:49:25   -82.339101   -0.25  -1.17
iter:   5 21:49:25   -82.337932   -0.75  -1.59
iter:   6 21:49:26   -82.334559c  -1.20  -2.07
iter:   7 21:49:26   -82.332923c  -1.95  -2.39
iter:   8 21:49:27   -82.332396c  -2.36  -2.60
iter:   9 21:49:27   -82.332334c  -2.83  -3.08
iter:  10 21:49:28   -82.332370c  -3.17  -3.22
iter:  11 21:49:28   -82.332787c  -3.68  -3.68
iter:  12 21:49:28   -82.332627c  -4.01  -3.87
iter:  13 21:49:28   -82.332550c  -4.31  -4.03c
iter:  14 21:49:29   -82.332700c  -4.66  -4.50c
iter:  15 21:49:29   -82.332619c  -4.91  -4.65c
iter:  16 21:49:29   -82.332504c  -5.18  -4.79c
iter:  17 21:49:30   -82.332677c  -5.49  -5.02c
iter:  18 21:49:30   -82.332681c  -5.78  -5.17c
iter:  19 21:49:30   -82.332537c  -6.09  -5.32c
iter:  20 21:49:30   -82.332524c  -6.41  -5.46c
iter:  21 21:49:31   -82.332551c  -6.72  -5.75c
iter:  22 21:49:31   -82.332542c  -7.03  -5.88c
iter:  23 21:49:31   -82.332544c  -7.36  -6.12c
iter:  24 21:49:31   -82.332551c  -7.56c -6.23c

Converged after 24 iterations.

Dipole moment: (-1.987476, 0.144230, -1.670116) |e|*Ang

Energy contributions relative to reference atoms: (reference = -10774.593890)

Kinetic:        +84.406691
Potential:      -94.195879
External:        +0.000000
XC:             -75.536651
Entropy (-ST):   +0.000000
Local:           +2.827261
Interactions  
 surf:           +0.166027
--------------------------
Free energy:    -82.332551
Extrapolated:   -82.332551

Solvation cavity surface area: 144.56758
Solvation cavity volume: 143.87551
 Band  Eigenvalues  Occupancy
    0    -26.17451    2.00000
    1    -25.54790    2.00000
    2    -24.87584    2.00000
    3    -22.94705    2.00000
    4    -19.35340    2.00000
    5    -16.36951    2.00000
    6    -15.09381    2.00000
    7    -14.50328    2.00000
    8    -13.31928    2.00000
    9    -13.16408    2.00000
   10    -11.60148    2.00000
   11    -10.97040    2.00000
   12    -10.61621    2.00000
   13     -9.94802    2.00000
   14     -9.24939    2.00000
   15     -8.85707    2.00000
   16     -8.62041    2.00000
   17     -7.02804    2.00000
   18     -5.64825    2.00000
   19     -5.54900    2.00000
   20     -4.98275    2.00000
   21     -1.42816    0.00000
   22     -0.55735    0.00000
   23     -0.37781    0.00000
   24      0.19442    0.00000
   25      0.45778    0.00000
   26      0.60443    0.00000
   27      0.78899    0.00000
   28      1.06532    0.00000
   29      1.53112    0.00000

Fermi level: -3.20545

Gap: 3.555 eV
Transition (v -> c):
  (s=0, k=0, n=20, [0.00, 0.00, 0.00]) -> (s=0, k=0, n=21, [0.00, 0.00, 0.00])
Input parameters:
  external: {direction: [1. 0. 0.],
             name: ConstantElectricField,
             strength: 0.01}

Initialize ...

species:
  N:
    name: Nitrogen
    id: f7500608b86eaa90eef8b1d9a670dc53
    Z: 7.0
    valence: 5
    core: 2
    charge: 0.0
    file: /home/fr/fr_fr/fr_ez1021/source/gpaw-setups/gpaw-setups-0.9.20000/N.PBE.gz
    compensation charges: {type: gauss,
                           rc: 0.18,
                           lmax: 2}
    cutoffs: {filter: 1.11,
              core: 0.96}
    valence states:
      #              energy  rcut
      - 2s(2.00)   -18.583   0.603
      - 2p(3.00)    -7.089   0.529
      -  s           8.629   0.603
      -  p          20.123   0.529
      -  d           0.000   0.577
  
    # Using partial waves for N as LCAO basis

  C:
    name: Carbon
    id: 4aa54d4b901d75f77cc0ea3eec22967b
    Z: 6.0
    valence: 4
    core: 2
    charge: 0.0
    file: /home/fr/fr_fr/fr_ez1021/source/gpaw-setups/gpaw-setups-0.9.20000/C.PBE.gz
    compensation charges: {type: gauss,
                           rc: 0.20,
                           lmax: 2}
    cutoffs: {filter: 1.14,
              core: 1.14}
    valence states:
      #              energy  rcut
      - 2s(2.00)   -13.751   0.635
      - 2p(2.00)    -5.284   0.635
      -  s          13.461   0.635
      -  p          21.927   0.635
      -  d           0.000   0.635
  
    # Using partial waves for C as LCAO basis

  O:
    name: Oxygen
    id: 32ecd46bf208036f09c70b0ec9a88b78
    Z: 8.0
    valence: 6
    core: 2
    charge: 0.0
    file: /home/fr/fr_fr/fr_ez1021/source/gpaw-setups/gpaw-setups-0.9.20000/O.PBE.gz
    compensation charges: {type: gauss,
                           rc: 0.21,
                           lmax: 2}
    cutoffs: {filter: 1.17,
              core: 0.83}
    valence states:
      #              energy  rcut
      - 2s(2.00)   -23.961   0.688
      - 2p(4.00)    -9.029   0.598
      -  s           3.251   0.688
      -  p          18.182   0.598
      -  d           0.000   0.619
  
    # Using partial waves for O as LCAO basis

  H:
    name: Hydrogen
    id: d65de229564ff8ea4db303e23b6d1ecf
    Z: 1.0
    valence: 1
    core: 0
    charge: 0.0
    file: /home/fr/fr_fr/fr_ez1021/source/gpaw-setups/gpaw-setups-0.9.20000/H.PBE.gz
    compensation charges: {type: gauss,
                           rc: 0.15,
                           lmax: 2}
    cutoffs: {filter: 0.85,
              core: 0.53}
    valence states:
      #              energy  rcut
      - 1s(1.00)    -6.494   0.476
      -  s          20.717   0.476
      -  p           0.000   0.476
  
    # Using partial waves for H as LCAO basis

Reference energy: -10774.593890  # eV

Spin-paired calculation

Convergence criteria:
 Maximum [total energy] change in last 3 cyles: 0.0005 eV / valence electron
 Maximum integral of absolute [dens]ity change: 0.0001 electrons / valence electron
 Maximum integral of absolute [eigenst]ate change: 4e-08 eV^2 / valence electron
 Maximum number of scf [iter]ations: 333
 (Square brackets indicate name in SCF output, whereas a 'c' in
 the SCF output indicates the quantity has converged.)

Symmetries present (total): 1

  ( 1  0  0)
  ( 0  1  0)
  ( 0  0  1)

1 k-point (Gamma)
1 k-point in the irreducible part of the Brillouin zone
       k-points in crystal coordinates                weights
   0:     0.00000000    0.00000000    0.00000000          1/1

Wave functions: Uniform real-space grid
  Kinetic energy operator: 6*3+1=19 point O(h^6) finite-difference Laplacian
  ScaLapack parameters: grid=1x1, blocksize=None
  Wavefunction extrapolation:
    Improved wavefunction reuse through dual PAW basis 

Occupation numbers: # Zero width 

Eigensolver
   Davidson(niter=2) 

Densities:
  Coarse grid: 64*60*60 grid
  Fine grid: 128*120*120 grid
  Total Charge: 0.000000 

Density mixing:
  Method: separate
  Backend: pulay
  Linear mixing parameter: 0.25
  old densities: 3
  Damping of long wavelength oscillations: 1  # (no daming) 

Hamiltonian:
  XC and Coulomb potentials evaluated on a 128*120*120 grid
  Using the PBE Exchange-Correlation functional
  External potential:
    Constant electric field: (0.010, 0.000, 0.000) V/Ang
  Interpolation: tri-quintic (5. degree polynomial)
  Poisson solver: Jacobi weighted FD solver with dielectric and 4 multi-grid levels
    Coarsest grid: 16 x 15 x 15 points
    Stencil: Weighted Finite Difference Operator
      6*3+1=19 point O(h^6) finite-difference Laplacian
      Finite-difference x-derivative with O(h^6) error (6 points)
      Finite-difference y-derivative with O(h^6) error (6 points)
      Finite-difference z-derivative with O(h^6) error (6 points)
    Max iterations: 1000
    Tolerance: 2.000000e-10

  Solvation:
    Cavity:  EffectivePotentialCavity
      Surface Calculator: GradientSurface with 3 nn
      Volume Calculator: KB51Volume
        compressibility: 72.57860092224
        temperature:     298.15
      EffectivePotentialCavity
        Potential: Power12Potential
          u0: 0.18eV
          pbc_cutoff: 1e-06
          tiny: 1e-10
        temperature: 298.15K    Dielectric:
      Type: LinearDielectric
      Solvent dielectric constant: 1.77    Interaction: SurfaceInteraction
      subscript: surf
      Surface_tension: 0.0011484376791625194 eV/(Angstrom^2)
XC parameters: PBE with 2 nearest neighbor stencil

Memory estimate:
  Process memory now: 241.38 MiB
  Calculator: 36.00 MiB
    Density: 3.63 MiB
      Arrays: 2.66 MiB
      Localized functions: 0.39 MiB
      Mixer: 0.58 MiB
    Hamiltonian: 26.00 MiB
      Arrays: 1.74 MiB
      XC: 0.00 MiB
      Poisson: 1.99 MiB
      vbar: 0.03 MiB
      Solvation: 22.23 MiB
    Wavefunctions: 6.37 MiB
      Arrays psit_nG: 2.89 MiB
      Eigensolver: 3.44 MiB
      Projections: 0.00 MiB
      Projectors: 0.04 MiB

Total number of cores used: 16
Domain decomposition: 4 x 2 x 2

Number of atoms: 14
Number of atomic orbitals: 35
Number of bands in calculation: 30
Number of valence electrons: 42
Bands to converge: occupied

... initialized

Initializing position-dependent things.

Solvation position-dependent initialization:
  Atomic radii for Power12Potential:
    Type    Radius   No. of atoms
       H     1.090     7
       O     1.520     3
       N     1.550     1
       C     1.700     3

Density initialized from atomic densities
Creating initial wave functions:
  30 bands from LCAO basis set

        .------------------------------.  
       /|                              |  
      / |                              |  
     /  |                              |  
    /   |                              |  
   /    |                              |  
  /     |                              |  
 *      |                              |  
 |      |               O              |  
 |      |        H                     |  
 |      |        C  C  C               |  
 |      |     HH O       O             |  
 |      |           N                  |  
 |      |          H   H               |  
 |      |                              |  
 |      .------------------------------.  
 |     /                              /   
 |    /                              /    
 |   /                              /     
 |  /                              /      
 | /                              /       
 |/                              /        
 *------------------------------*         

Positions:
   0 N      6.367538    6.405185    4.628490    ( 0.0000,  0.0000,  0.0000)
   1 C      6.280376    6.759805    6.081131    ( 0.0000,  0.0000,  0.0000)
   2 C      7.671979    6.481343    6.734267    ( 0.0000,  0.0000,  0.0000)
   3 O      7.731171    6.588576    7.985724    ( 0.0000,  0.0000,  0.0000)
   4 H      5.980765    5.466145    4.465812    ( 0.0000,  0.0000,  0.0000)
   5 H      7.381492    6.370640    4.404470    ( 0.0000,  0.0000,  0.0000)
   6 H      6.097800    7.840892    6.146631    ( 0.0000,  0.0000,  0.0000)
   7 C      5.126051    6.028199    6.736264    ( 0.0000,  0.0000,  0.0000)
   8 O      5.365743    4.617341    6.620476    ( 0.0000,  0.0000,  0.0000)
   9 H      4.182366    6.298693    6.238770    ( 0.0000,  0.0000,  0.0000)
  10 H      5.073777    6.345134    7.788176    ( 0.0000,  0.0000,  0.0000)
  11 H      4.514594    4.159108    6.736367    ( 0.0000,  0.0000,  0.0000)
  12 O      8.617634    6.217250    5.933351    ( 0.0000,  0.0000,  0.0000)
  13 H      5.886465    7.069977    4.014276    ( 0.0000,  0.0000,  0.0000)

Unit cell:
           periodic     x           y           z      points  spacing
  1. axis:    no    12.800000    0.000000    0.000000    64     0.2000
  2. axis:    no     0.000000   12.000000    0.000000    60     0.2000
  3. axis:    no     0.000000    0.000000   12.000000    60     0.2000

  Lengths:  12.800000  12.000000  12.000000
  Angles:   90.000000  90.000000  90.000000

Effective grid spacing dv^(1/3) = 0.2000

     iter     time        total  log10-change:
                         energy   eigst   dens
iter:   1 21:49:33   -89.171535
iter:   2 21:49:34   -83.875636   +0.60  -0.74
iter:   3 21:49:35   -82.523359   +0.49  -0.94
iter:   4 21:49:36   -82.319258   -0.25  -1.18
iter:   5 21:49:36   -82.318093   -0.75  -1.59
iter:   6 21:49:37   -82.314721c  -1.20  -2.07
iter:   7 21:49:37   -82.313087c  -1.95  -2.39
iter:   8 21:49:38   -82.312562c  -2.36  -2.60
iter:   9 21:49:38   -82.312500c  -2.83  -3.08
iter:  10 21:49:39   -82.312536c  -3.17  -3.22
iter:  11 21:49:39   -82.312951c  -3.68  -3.68
iter:  12 21:49:39   -82.312793c  -4.01  -3.87
iter:  13 21:49:40   -82.312716c  -4.31  -4.03c
iter:  14 21:49:40   -82.312866c  -4.66  -4.50c
iter:  15 21:49:40   -82.312785c  -4.91  -4.65c
iter:  16 21:49:40   -82.312670c  -5.18  -4.79c
iter:  17 21:49:41   -82.312842c  -5.48  -5.02c
iter:  18 21:49:41   -82.312847c  -5.78  -5.17c
iter:  19 21:49:41   -82.312703c  -6.09  -5.32c
iter:  20 21:49:41   -82.312690c  -6.41  -5.46c
iter:  21 21:49:42   -82.312717c  -6.71  -5.75c
iter:  22 21:49:42   -82.312708c  -7.03  -5.88c
iter:  23 21:49:42   -82.312710c  -7.35  -6.12c
iter:  24 21:49:42   -82.312717c  -7.55c -6.23c

Converged after 24 iterations.

Dipole moment: (-1.979325, 0.144276, -1.669949) |e|*Ang

Energy contributions relative to reference atoms: (reference = -10774.593890)

Kinetic:        +84.414230
Potential:      -94.205624
External:        +0.019793
XC:             -75.534290
Entropy (-ST):   +0.000000
Local:           +2.827146
Interactions  
 surf:           +0.166027
--------------------------
Free energy:    -82.312717
Extrapolated:   -82.312717

Solvation cavity surface area: 144.56758
Solvation cavity volume: 143.87551
 Band  Eigenvalues  Occupancy
    0    -26.18111    2.00000
    1    -25.54595    2.00000
    2    -24.86924    2.00000
    3    -22.93606    2.00000
    4    -19.35649    2.00000
    5    -16.37305    2.00000
    6    -15.09450    2.00000
    7    -14.50357    2.00000
    8    -13.32670    2.00000
    9    -13.16395    2.00000
   10    -11.59956    2.00000
   11    -10.97685    2.00000
   12    -10.61801    2.00000
   13     -9.94047    2.00000
   14     -9.23990    2.00000
   15     -8.85743    2.00000
   16     -8.61644    2.00000
   17     -7.03702    2.00000
   18     -5.63618    2.00000
   19     -5.53765    2.00000
   20     -4.97243    2.00000
   21     -1.43693    0.00000
   22     -0.57128    0.00000
   23     -0.38788    0.00000
   24      0.18868    0.00000
   25      0.46231    0.00000
   26      0.60087    0.00000
   27      0.78309    0.00000
   28      1.06449    0.00000
   29      1.53730    0.00000

Fermi level: -3.20468

Gap: 3.536 eV
Transition (v -> c):
  (s=0, k=0, n=20, [0.00, 0.00, 0.00]) -> (s=0, k=0, n=21, [0.00, 0.00, 0.00])
Input parameters:
  external: {direction: [0. 1. 0.],
             name: ConstantElectricField,
             strength: 0.01}

Initialize ...

species:
  N:
    name: Nitrogen
    id: f7500608b86eaa90eef8b1d9a670dc53
    Z: 7.0
    valence: 5
    core: 2
    charge: 0.0
    file: /home/fr/fr_fr/fr_ez1021/source/gpaw-setups/gpaw-setups-0.9.20000/N.PBE.gz
    compensation charges: {type: gauss,
                           rc: 0.18,
                           lmax: 2}
    cutoffs: {filter: 1.11,
              core: 0.96}
    valence states:
      #              energy  rcut
      - 2s(2.00)   -18.583   0.603
      - 2p(3.00)    -7.089   0.529
      -  s           8.629   0.603
      -  p          20.123   0.529
      -  d           0.000   0.577
  
    # Using partial waves for N as LCAO basis

  C:
    name: Carbon
    id: 4aa54d4b901d75f77cc0ea3eec22967b
    Z: 6.0
    valence: 4
    core: 2
    charge: 0.0
    file: /home/fr/fr_fr/fr_ez1021/source/gpaw-setups/gpaw-setups-0.9.20000/C.PBE.gz
    compensation charges: {type: gauss,
                           rc: 0.20,
                           lmax: 2}
    cutoffs: {filter: 1.14,
              core: 1.14}
    valence states:
      #              energy  rcut
      - 2s(2.00)   -13.751   0.635
      - 2p(2.00)    -5.284   0.635
      -  s          13.461   0.635
      -  p          21.927   0.635
      -  d           0.000   0.635
  
    # Using partial waves for C as LCAO basis

  O:
    name: Oxygen
    id: 32ecd46bf208036f09c70b0ec9a88b78
    Z: 8.0
    valence: 6
    core: 2
    charge: 0.0
    file: /home/fr/fr_fr/fr_ez1021/source/gpaw-setups/gpaw-setups-0.9.20000/O.PBE.gz
    compensation charges: {type: gauss,
                           rc: 0.21,
                           lmax: 2}
    cutoffs: {filter: 1.17,
              core: 0.83}
    valence states:
      #              energy  rcut
      - 2s(2.00)   -23.961   0.688
      - 2p(4.00)    -9.029   0.598
      -  s           3.251   0.688
      -  p          18.182   0.598
      -  d           0.000   0.619
  
    # Using partial waves for O as LCAO basis

  H:
    name: Hydrogen
    id: d65de229564ff8ea4db303e23b6d1ecf
    Z: 1.0
    valence: 1
    core: 0
    charge: 0.0
    file: /home/fr/fr_fr/fr_ez1021/source/gpaw-setups/gpaw-setups-0.9.20000/H.PBE.gz
    compensation charges: {type: gauss,
                           rc: 0.15,
                           lmax: 2}
    cutoffs: {filter: 0.85,
              core: 0.53}
    valence states:
      #              energy  rcut
      - 1s(1.00)    -6.494   0.476
      -  s          20.717   0.476
      -  p           0.000   0.476
  
    # Using partial waves for H as LCAO basis

Reference energy: -10774.593890  # eV

Spin-paired calculation

Convergence criteria:
 Maximum [total energy] change in last 3 cyles: 0.0005 eV / valence electron
 Maximum integral of absolute [dens]ity change: 0.0001 electrons / valence electron
 Maximum integral of absolute [eigenst]ate change: 4e-08 eV^2 / valence electron
 Maximum number of scf [iter]ations: 333
 (Square brackets indicate name in SCF output, whereas a 'c' in
 the SCF output indicates the quantity has converged.)

Symmetries present (total): 1

  ( 1  0  0)
  ( 0  1  0)
  ( 0  0  1)

1 k-point (Gamma)
1 k-point in the irreducible part of the Brillouin zone
       k-points in crystal coordinates                weights
   0:     0.00000000    0.00000000    0.00000000          1/1

Wave functions: Uniform real-space grid
  Kinetic energy operator: 6*3+1=19 point O(h^6) finite-difference Laplacian
  ScaLapack parameters: grid=1x1, blocksize=None
  Wavefunction extrapolation:
    Improved wavefunction reuse through dual PAW basis 

Occupation numbers: # Zero width 

Eigensolver
   Davidson(niter=2) 

Densities:
  Coarse grid: 64*60*60 grid
  Fine grid: 128*120*120 grid
  Total Charge: 0.000000 

Density mixing:
  Method: separate
  Backend: pulay
  Linear mixing parameter: 0.25
  old densities: 3
  Damping of long wavelength oscillations: 1  # (no daming) 

Hamiltonian:
  XC and Coulomb potentials evaluated on a 128*120*120 grid
  Using the PBE Exchange-Correlation functional
  External potential:
    Constant electric field: (0.000, 0.010, 0.000) V/Ang
  Interpolation: tri-quintic (5. degree polynomial)
  Poisson solver: Jacobi weighted FD solver with dielectric and 4 multi-grid levels
    Coarsest grid: 16 x 15 x 15 points
    Stencil: Weighted Finite Difference Operator
      6*3+1=19 point O(h^6) finite-difference Laplacian
      Finite-difference x-derivative with O(h^6) error (6 points)
      Finite-difference y-derivative with O(h^6) error (6 points)
      Finite-difference z-derivative with O(h^6) error (6 points)
    Max iterations: 1000
    Tolerance: 2.000000e-10

  Solvation:
    Cavity:  EffectivePotentialCavity
      Surface Calculator: GradientSurface with 3 nn
      Volume Calculator: KB51Volume
        compressibility: 72.57860092224
        temperature:     298.15
      EffectivePotentialCavity
        Potential: Power12Potential
          u0: 0.18eV
          pbc_cutoff: 1e-06
          tiny: 1e-10
        temperature: 298.15K    Dielectric:
      Type: LinearDielectric
      Solvent dielectric constant: 1.77    Interaction: SurfaceInteraction
      subscript: surf
      Surface_tension: 0.0011484376791625194 eV/(Angstrom^2)
XC parameters: PBE with 2 nearest neighbor stencil

Memory estimate:
  Process memory now: 245.37 MiB
  Calculator: 36.00 MiB
    Density: 3.63 MiB
      Arrays: 2.66 MiB
      Localized functions: 0.39 MiB
      Mixer: 0.58 MiB
    Hamiltonian: 26.00 MiB
      Arrays: 1.74 MiB
      XC: 0.00 MiB
      Poisson: 1.99 MiB
      vbar: 0.03 MiB
      Solvation: 22.23 MiB
    Wavefunctions: 6.37 MiB
      Arrays psit_nG: 2.89 MiB
      Eigensolver: 3.44 MiB
      Projections: 0.00 MiB
      Projectors: 0.04 MiB

Total number of cores used: 16
Domain decomposition: 4 x 2 x 2

Number of atoms: 14
Number of atomic orbitals: 35
Number of bands in calculation: 30
Number of valence electrons: 42
Bands to converge: occupied

... initialized

Initializing position-dependent things.

Solvation position-dependent initialization:
  Atomic radii for Power12Potential:
    Type    Radius   No. of atoms
       H     1.090     7
       O     1.520     3
       N     1.550     1
       C     1.700     3

Density initialized from atomic densities
Creating initial wave functions:
  30 bands from LCAO basis set

        .------------------------------.  
       /|                              |  
      / |                              |  
     /  |                              |  
    /   |                              |  
   /    |                              |  
  /     |                              |  
 *      |                              |  
 |      |               O              |  
 |      |        H                     |  
 |      |        C  C  C               |  
 |      |     HH O       O             |  
 |      |           N                  |  
 |      |          H   H               |  
 |      |                              |  
 |      .------------------------------.  
 |     /                              /   
 |    /                              /    
 |   /                              /     
 |  /                              /      
 | /                              /       
 |/                              /        
 *------------------------------*         

Positions:
   0 N      6.367538    6.405185    4.628490    ( 0.0000,  0.0000,  0.0000)
   1 C      6.280376    6.759805    6.081131    ( 0.0000,  0.0000,  0.0000)
   2 C      7.671979    6.481343    6.734267    ( 0.0000,  0.0000,  0.0000)
   3 O      7.731171    6.588576    7.985724    ( 0.0000,  0.0000,  0.0000)
   4 H      5.980765    5.466145    4.465812    ( 0.0000,  0.0000,  0.0000)
   5 H      7.381492    6.370640    4.404470    ( 0.0000,  0.0000,  0.0000)
   6 H      6.097800    7.840892    6.146631    ( 0.0000,  0.0000,  0.0000)
   7 C      5.126051    6.028199    6.736264    ( 0.0000,  0.0000,  0.0000)
   8 O      5.365743    4.617341    6.620476    ( 0.0000,  0.0000,  0.0000)
   9 H      4.182366    6.298693    6.238770    ( 0.0000,  0.0000,  0.0000)
  10 H      5.073777    6.345134    7.788176    ( 0.0000,  0.0000,  0.0000)
  11 H      4.514594    4.159108    6.736367    ( 0.0000,  0.0000,  0.0000)
  12 O      8.617634    6.217250    5.933351    ( 0.0000,  0.0000,  0.0000)
  13 H      5.886465    7.069977    4.014276    ( 0.0000,  0.0000,  0.0000)

Unit cell:
           periodic     x           y           z      points  spacing
  1. axis:    no    12.800000    0.000000    0.000000    64     0.2000
  2. axis:    no     0.000000   12.000000    0.000000    60     0.2000
  3. axis:    no     0.000000    0.000000   12.000000    60     0.2000

  Lengths:  12.800000  12.000000  12.000000
  Angles:   90.000000  90.000000  90.000000

Effective grid spacing dv^(1/3) = 0.2000

     iter     time        total  log10-change:
                         energy   eigst   dens
iter:   1 21:49:44   -89.200689
iter:   2 21:49:45   -83.897927   +0.60  -0.74
iter:   3 21:49:46   -82.545115   +0.49  -0.94
iter:   4 21:49:47   -82.340600   -0.25  -1.17
iter:   5 21:49:48   -82.339414   -0.75  -1.59
iter:   6 21:49:48   -82.336037c  -1.20  -2.07
iter:   7 21:49:49   -82.334398c  -1.95  -2.39
iter:   8 21:49:49   -82.333870c  -2.36  -2.60
iter:   9 21:49:49   -82.333808c  -2.83  -3.08
iter:  10 21:49:50   -82.333844c  -3.17  -3.22
iter:  11 21:49:50   -82.334261c  -3.68  -3.67
iter:  12 21:49:50   -82.334101c  -4.01  -3.87
iter:  13 21:49:51   -82.334023c  -4.31  -4.03c
iter:  14 21:49:51   -82.334175c  -4.66  -4.50c
iter:  15 21:49:51   -82.334093c  -4.91  -4.65c
iter:  16 21:49:52   -82.333977c  -5.18  -4.79c
iter:  17 21:49:52   -82.334151c  -5.49  -5.02c
iter:  18 21:49:52   -82.334155c  -5.78  -5.17c
iter:  19 21:49:52   -82.334011c  -6.09  -5.32c
iter:  20 21:49:53   -82.333998c  -6.41  -5.46c
iter:  21 21:49:53   -82.334025c  -6.72  -5.75c
iter:  22 21:49:53   -82.334016c  -7.03  -5.88c
iter:  23 21:49:53   -82.334017c  -7.35  -6.12c
iter:  24 21:49:54   -82.334025c  -7.55c -6.22c

Converged after 24 iterations.

Dipole moment: (-1.987430, 0.150551, -1.669996) |e|*Ang

Energy contributions relative to reference atoms: (reference = -10774.593890)

Kinetic:        +84.409473
Potential:      -94.197439
External:        -0.001506
XC:             -75.537861
Entropy (-ST):   +0.000000
Local:           +2.827280
Interactions  
 surf:           +0.166027
--------------------------
Free energy:    -82.334025
Extrapolated:   -82.334025

Solvation cavity surface area: 144.56758
Solvation cavity volume: 143.87551
 Band  Eigenvalues  Occupancy
    0    -26.17893    2.00000
    1    -25.54671    2.00000
    2    -24.87199    2.00000
    3    -22.94291    2.00000
    4    -19.35089    2.00000
    5    -16.36801    2.00000
    6    -15.08984    2.00000
    7    -14.50070    2.00000
    8    -13.32168    2.00000
    9    -13.16132    2.00000
   10    -11.59899    2.00000
   11    -10.97006    2.00000
   12    -10.61418    2.00000
   13     -9.94518    2.00000
   14     -9.24641    2.00000
   15     -8.85837    2.00000
   16     -8.61833    2.00000
   17     -7.03416    2.00000
   18     -5.64408    2.00000
   19     -5.54542    2.00000
   20     -4.97825    2.00000
   21     -1.42470    0.00000
   22     -0.56063    0.00000
   23     -0.37655    0.00000
   24      0.19966    0.00000
   25      0.46229    0.00000
   26      0.60832    0.00000
   27      0.79423    0.00000
   28      1.07035    0.00000
   29      1.52717    0.00000

Fermi level: -3.20148

Gap: 3.554 eV
Transition (v -> c):
  (s=0, k=0, n=20, [0.00, 0.00, 0.00]) -> (s=0, k=0, n=21, [0.00, 0.00, 0.00])
Input parameters:
  external: {direction: [0. 0. 1.],
             name: ConstantElectricField,
             strength: 0.01}

Initialize ...

species:
  N:
    name: Nitrogen
    id: f7500608b86eaa90eef8b1d9a670dc53
    Z: 7.0
    valence: 5
    core: 2
    charge: 0.0
    file: /home/fr/fr_fr/fr_ez1021/source/gpaw-setups/gpaw-setups-0.9.20000/N.PBE.gz
    compensation charges: {type: gauss,
                           rc: 0.18,
                           lmax: 2}
    cutoffs: {filter: 1.11,
              core: 0.96}
    valence states:
      #              energy  rcut
      - 2s(2.00)   -18.583   0.603
      - 2p(3.00)    -7.089   0.529
      -  s           8.629   0.603
      -  p          20.123   0.529
      -  d           0.000   0.577
  
    # Using partial waves for N as LCAO basis

  C:
    name: Carbon
    id: 4aa54d4b901d75f77cc0ea3eec22967b
    Z: 6.0
    valence: 4
    core: 2
    charge: 0.0
    file: /home/fr/fr_fr/fr_ez1021/source/gpaw-setups/gpaw-setups-0.9.20000/C.PBE.gz
    compensation charges: {type: gauss,
                           rc: 0.20,
                           lmax: 2}
    cutoffs: {filter: 1.14,
              core: 1.14}
    valence states:
      #              energy  rcut
      - 2s(2.00)   -13.751   0.635
      - 2p(2.00)    -5.284   0.635
      -  s          13.461   0.635
      -  p          21.927   0.635
      -  d           0.000   0.635
  
    # Using partial waves for C as LCAO basis

  O:
    name: Oxygen
    id: 32ecd46bf208036f09c70b0ec9a88b78
    Z: 8.0
    valence: 6
    core: 2
    charge: 0.0
    file: /home/fr/fr_fr/fr_ez1021/source/gpaw-setups/gpaw-setups-0.9.20000/O.PBE.gz
    compensation charges: {type: gauss,
                           rc: 0.21,
                           lmax: 2}
    cutoffs: {filter: 1.17,
              core: 0.83}
    valence states:
      #              energy  rcut
      - 2s(2.00)   -23.961   0.688
      - 2p(4.00)    -9.029   0.598
      -  s           3.251   0.688
      -  p          18.182   0.598
      -  d           0.000   0.619
  
    # Using partial waves for O as LCAO basis

  H:
    name: Hydrogen
    id: d65de229564ff8ea4db303e23b6d1ecf
    Z: 1.0
    valence: 1
    core: 0
    charge: 0.0
    file: /home/fr/fr_fr/fr_ez1021/source/gpaw-setups/gpaw-setups-0.9.20000/H.PBE.gz
    compensation charges: {type: gauss,
                           rc: 0.15,
                           lmax: 2}
    cutoffs: {filter: 0.85,
              core: 0.53}
    valence states:
      #              energy  rcut
      - 1s(1.00)    -6.494   0.476
      -  s          20.717   0.476
      -  p           0.000   0.476
  
    # Using partial waves for H as LCAO basis

Reference energy: -10774.593890  # eV

Spin-paired calculation

Convergence criteria:
 Maximum [total energy] change in last 3 cyles: 0.0005 eV / valence electron
 Maximum integral of absolute [dens]ity change: 0.0001 electrons / valence electron
 Maximum integral of absolute [eigenst]ate change: 4e-08 eV^2 / valence electron
 Maximum number of scf [iter]ations: 333
 (Square brackets indicate name in SCF output, whereas a 'c' in
 the SCF output indicates the quantity has converged.)

Symmetries present (total): 1

  ( 1  0  0)
  ( 0  1  0)
  ( 0  0  1)

1 k-point (Gamma)
1 k-point in the irreducible part of the Brillouin zone
       k-points in crystal coordinates                weights
   0:     0.00000000    0.00000000    0.00000000          1/1

Wave functions: Uniform real-space grid
  Kinetic energy operator: 6*3+1=19 point O(h^6) finite-difference Laplacian
  ScaLapack parameters: grid=1x1, blocksize=None
  Wavefunction extrapolation:
    Improved wavefunction reuse through dual PAW basis 

Occupation numbers: # Zero width 

Eigensolver
   Davidson(niter=2) 

Densities:
  Coarse grid: 64*60*60 grid
  Fine grid: 128*120*120 grid
  Total Charge: 0.000000 

Density mixing:
  Method: separate
  Backend: pulay
  Linear mixing parameter: 0.25
  old densities: 3
  Damping of long wavelength oscillations: 1  # (no daming) 

Hamiltonian:
  XC and Coulomb potentials evaluated on a 128*120*120 grid
  Using the PBE Exchange-Correlation functional
  External potential:
    Constant electric field: (0.000, 0.000, 0.010) V/Ang
  Interpolation: tri-quintic (5. degree polynomial)
  Poisson solver: Jacobi weighted FD solver with dielectric and 4 multi-grid levels
    Coarsest grid: 16 x 15 x 15 points
    Stencil: Weighted Finite Difference Operator
      6*3+1=19 point O(h^6) finite-difference Laplacian
      Finite-difference x-derivative with O(h^6) error (6 points)
      Finite-difference y-derivative with O(h^6) error (6 points)
      Finite-difference z-derivative with O(h^6) error (6 points)
    Max iterations: 1000
    Tolerance: 2.000000e-10

  Solvation:
    Cavity:  EffectivePotentialCavity
      Surface Calculator: GradientSurface with 3 nn
      Volume Calculator: KB51Volume
        compressibility: 72.57860092224
        temperature:     298.15
      EffectivePotentialCavity
        Potential: Power12Potential
          u0: 0.18eV
          pbc_cutoff: 1e-06
          tiny: 1e-10
        temperature: 298.15K    Dielectric:
      Type: LinearDielectric
      Solvent dielectric constant: 1.77    Interaction: SurfaceInteraction
      subscript: surf
      Surface_tension: 0.0011484376791625194 eV/(Angstrom^2)
XC parameters: PBE with 2 nearest neighbor stencil

Memory estimate:
  Process memory now: 249.18 MiB
  Calculator: 36.00 MiB
    Density: 3.63 MiB
      Arrays: 2.66 MiB
      Localized functions: 0.39 MiB
      Mixer: 0.58 MiB
    Hamiltonian: 26.00 MiB
      Arrays: 1.74 MiB
      XC: 0.00 MiB
      Poisson: 1.99 MiB
      vbar: 0.03 MiB
      Solvation: 22.23 MiB
    Wavefunctions: 6.37 MiB
      Arrays psit_nG: 2.89 MiB
      Eigensolver: 3.44 MiB
      Projections: 0.00 MiB
      Projectors: 0.04 MiB

Total number of cores used: 16
Domain decomposition: 4 x 2 x 2

Number of atoms: 14
Number of atomic orbitals: 35
Number of bands in calculation: 30
Number of valence electrons: 42
Bands to converge: occupied

... initialized

Initializing position-dependent things.

Solvation position-dependent initialization:
  Atomic radii for Power12Potential:
    Type    Radius   No. of atoms
       H     1.090     7
       O     1.520     3
       N     1.550     1
       C     1.700     3

Density initialized from atomic densities
Creating initial wave functions:
  30 bands from LCAO basis set

        .------------------------------.  
       /|                              |  
      / |                              |  
     /  |                              |  
    /   |                              |  
   /    |                              |  
  /     |                              |  
 *      |                              |  
 |      |               O              |  
 |      |        H                     |  
 |      |        C  C  C               |  
 |      |     HH O       O             |  
 |      |           N                  |  
 |      |          H   H               |  
 |      |                              |  
 |      .------------------------------.  
 |     /                              /   
 |    /                              /    
 |   /                              /     
 |  /                              /      
 | /                              /       
 |/                              /        
 *------------------------------*         

Positions:
   0 N      6.367538    6.405185    4.628490    ( 0.0000,  0.0000,  0.0000)
   1 C      6.280376    6.759805    6.081131    ( 0.0000,  0.0000,  0.0000)
   2 C      7.671979    6.481343    6.734267    ( 0.0000,  0.0000,  0.0000)
   3 O      7.731171    6.588576    7.985724    ( 0.0000,  0.0000,  0.0000)
   4 H      5.980765    5.466145    4.465812    ( 0.0000,  0.0000,  0.0000)
   5 H      7.381492    6.370640    4.404470    ( 0.0000,  0.0000,  0.0000)
   6 H      6.097800    7.840892    6.146631    ( 0.0000,  0.0000,  0.0000)
   7 C      5.126051    6.028199    6.736264    ( 0.0000,  0.0000,  0.0000)
   8 O      5.365743    4.617341    6.620476    ( 0.0000,  0.0000,  0.0000)
   9 H      4.182366    6.298693    6.238770    ( 0.0000,  0.0000,  0.0000)
  10 H      5.073777    6.345134    7.788176    ( 0.0000,  0.0000,  0.0000)
  11 H      4.514594    4.159108    6.736367    ( 0.0000,  0.0000,  0.0000)
  12 O      8.617634    6.217250    5.933351    ( 0.0000,  0.0000,  0.0000)
  13 H      5.886465    7.069977    4.014276    ( 0.0000,  0.0000,  0.0000)

Unit cell:
           periodic     x           y           z      points  spacing
  1. axis:    no    12.800000    0.000000    0.000000    64     0.2000
  2. axis:    no     0.000000   12.000000    0.000000    60     0.2000
  3. axis:    no     0.000000    0.000000   12.000000    60     0.2000

  Lengths:  12.800000  12.000000  12.000000
  Angles:   90.000000  90.000000  90.000000

Effective grid spacing dv^(1/3) = 0.2000

     iter     time        total  log10-change:
                         energy   eigst   dens
iter:   1 21:49:56   -89.175335
iter:   2 21:49:57   -83.878050   +0.60  -0.74
iter:   3 21:49:57   -82.526633   +0.49  -0.94
iter:   4 21:49:58   -82.322457   -0.25  -1.17
iter:   5 21:49:59   -82.321260   -0.75  -1.59
iter:   6 21:49:59   -82.317895c  -1.20  -2.07
iter:   7 21:50:00   -82.316262c  -1.95  -2.39
iter:   8 21:50:00   -82.315739c  -2.36  -2.60
iter:   9 21:50:01   -82.315675c  -2.83  -3.08
iter:  10 21:50:01   -82.315712c  -3.17  -3.22
iter:  11 21:50:01   -82.316128c  -3.68  -3.67
iter:  12 21:50:02   -82.315969c  -4.01  -3.87
iter:  13 21:50:02   -82.315890c  -4.31  -4.03c
iter:  14 21:50:02   -82.316042c  -4.66  -4.50c
iter:  15 21:50:03   -82.315960c  -4.91  -4.65c
iter:  16 21:50:03   -82.315845c  -5.18  -4.79c
iter:  17 21:50:03   -82.316017c  -5.48  -5.01c
iter:  18 21:50:03   -82.316023c  -5.78  -5.17c
iter:  19 21:50:04   -82.315878c  -6.09  -5.32c
iter:  20 21:50:04   -82.315866c  -6.41  -5.46c
iter:  21 21:50:04   -82.315893c  -6.72  -5.74c
iter:  22 21:50:04   -82.315884c  -7.03  -5.88c
iter:  23 21:50:05   -82.315885c  -7.35  -6.12c
iter:  24 21:50:05   -82.315893c  -7.55c -6.22c

Converged after 24 iterations.

Dipole moment: (-1.987308, 0.144350, -1.661564) |e|*Ang

Energy contributions relative to reference atoms: (reference = -10774.593890)

Kinetic:        +84.414711
Potential:      -94.205466
External:        +0.016616
XC:             -75.534979
Entropy (-ST):   +0.000000
Local:           +2.827199
Interactions  
 surf:           +0.166027
--------------------------
Free energy:    -82.315893
Extrapolated:   -82.315893

Solvation cavity surface area: 144.56758
Solvation cavity volume: 143.87551
 Band  Eigenvalues  Occupancy
    0    -26.17112    2.00000
    1    -25.54739    2.00000
    2    -24.87492    2.00000
    3    -22.94094    2.00000
    4    -19.35152    2.00000
    5    -16.36783    2.00000
    6    -15.09985    2.00000
    7    -14.50790    2.00000
    8    -13.31600    2.00000
    9    -13.16380    2.00000
   10    -11.59830    2.00000
   11    -10.96533    2.00000
   12    -10.61315    2.00000
   13     -9.94368    2.00000
   14     -9.24155    2.00000
   15     -8.85191    2.00000
   16     -8.61544    2.00000
   17     -7.02234    2.00000
   18     -5.64162    2.00000
   19     -5.54560    2.00000
   20     -4.97421    2.00000
   21     -1.44073    0.00000
   22     -0.56027    0.00000
   23     -0.38072    0.00000
   24      0.18646    0.00000
   25      0.46509    0.00000
   26      0.59993    0.00000
   27      0.79002    0.00000
   28      1.06222    0.00000
   29      1.52409    0.00000

Fermi level: -3.20747

Gap: 3.533 eV
Transition (v -> c):
  (s=0, k=0, n=20, [0.00, 0.00, 0.00]) -> (s=0, k=0, n=21, [0.00, 0.00, 0.00])
Input parameters:
  external: None

Initialize ...

species:
  N:
    name: Nitrogen
    id: f7500608b86eaa90eef8b1d9a670dc53
    Z: 7.0
    valence: 5
    core: 2
    charge: 0.0
    file: /home/fr/fr_fr/fr_ez1021/source/gpaw-setups/gpaw-setups-0.9.20000/N.PBE.gz
    compensation charges: {type: gauss,
                           rc: 0.18,
                           lmax: 2}
    cutoffs: {filter: 1.11,
              core: 0.96}
    valence states:
      #              energy  rcut
      - 2s(2.00)   -18.583   0.603
      - 2p(3.00)    -7.089   0.529
      -  s           8.629   0.603
      -  p          20.123   0.529
      -  d           0.000   0.577
  
    # Using partial waves for N as LCAO basis

  C:
    name: Carbon
    id: 4aa54d4b901d75f77cc0ea3eec22967b
    Z: 6.0
    valence: 4
    core: 2
    charge: 0.0
    file: /home/fr/fr_fr/fr_ez1021/source/gpaw-setups/gpaw-setups-0.9.20000/C.PBE.gz
    compensation charges: {type: gauss,
                           rc: 0.20,
                           lmax: 2}
    cutoffs: {filter: 1.14,
              core: 1.14}
    valence states:
      #              energy  rcut
      - 2s(2.00)   -13.751   0.635
      - 2p(2.00)    -5.284   0.635
      -  s          13.461   0.635
      -  p          21.927   0.635
      -  d           0.000   0.635
  
    # Using partial waves for C as LCAO basis

  O:
    name: Oxygen
    id: 32ecd46bf208036f09c70b0ec9a88b78
    Z: 8.0
    valence: 6
    core: 2
    charge: 0.0
    file: /home/fr/fr_fr/fr_ez1021/source/gpaw-setups/gpaw-setups-0.9.20000/O.PBE.gz
    compensation charges: {type: gauss,
                           rc: 0.21,
                           lmax: 2}
    cutoffs: {filter: 1.17,
              core: 0.83}
    valence states:
      #              energy  rcut
      - 2s(2.00)   -23.961   0.688
      - 2p(4.00)    -9.029   0.598
      -  s           3.251   0.688
      -  p          18.182   0.598
      -  d           0.000   0.619
  
    # Using partial waves for O as LCAO basis

  H:
    name: Hydrogen
    id: d65de229564ff8ea4db303e23b6d1ecf
    Z: 1.0
    valence: 1
    core: 0
    charge: 0.0
    file: /home/fr/fr_fr/fr_ez1021/source/gpaw-setups/gpaw-setups-0.9.20000/H.PBE.gz
    compensation charges: {type: gauss,
                           rc: 0.15,
                           lmax: 2}
    cutoffs: {filter: 0.85,
              core: 0.53}
    valence states:
      #              energy  rcut
      - 1s(1.00)    -6.494   0.476
      -  s          20.717   0.476
      -  p           0.000   0.476
  
    # Using partial waves for H as LCAO basis

Reference energy: -10774.593890  # eV

Spin-paired calculation

Convergence criteria:
 Maximum [total energy] change in last 3 cyles: 0.0005 eV / valence electron
 Maximum integral of absolute [dens]ity change: 0.0001 electrons / valence electron
 Maximum integral of absolute [eigenst]ate change: 4e-08 eV^2 / valence electron
 Maximum number of scf [iter]ations: 333
 (Square brackets indicate name in SCF output, whereas a 'c' in
 the SCF output indicates the quantity has converged.)

Symmetries present (total): 1

  ( 1  0  0)
  ( 0  1  0)
  ( 0  0  1)

1 k-point (Gamma)
1 k-point in the irreducible part of the Brillouin zone
       k-points in crystal coordinates                weights
   0:     0.00000000    0.00000000    0.00000000          1/1

Wave functions: Uniform real-space grid
  Kinetic energy operator: 6*3+1=19 point O(h^6) finite-difference Laplacian
  ScaLapack parameters: grid=1x1, blocksize=None
  Wavefunction extrapolation:
    Improved wavefunction reuse through dual PAW basis 

Occupation numbers: # Zero width 

Eigensolver
   Davidson(niter=2) 

Densities:
  Coarse grid: 64*60*60 grid
  Fine grid: 128*120*120 grid
  Total Charge: 0.000000 

Density mixing:
  Method: separate
  Backend: pulay
  Linear mixing parameter: 0.25
  old densities: 3
  Damping of long wavelength oscillations: 1  # (no daming) 

Hamiltonian:
  XC and Coulomb potentials evaluated on a 128*120*120 grid
  Using the PBE Exchange-Correlation functional
  Interpolation: tri-quintic (5. degree polynomial)
  Poisson solver: Jacobi weighted FD solver with dielectric and 4 multi-grid levels
    Coarsest grid: 16 x 15 x 15 points
    Stencil: Weighted Finite Difference Operator
      6*3+1=19 point O(h^6) finite-difference Laplacian
      Finite-difference x-derivative with O(h^6) error (6 points)
      Finite-difference y-derivative with O(h^6) error (6 points)
      Finite-difference z-derivative with O(h^6) error (6 points)
    Max iterations: 1000
    Tolerance: 2.000000e-10

  Solvation:
    Cavity:  EffectivePotentialCavity
      Surface Calculator: GradientSurface with 3 nn
      Volume Calculator: KB51Volume
        compressibility: 72.57860092224
        temperature:     298.15
      EffectivePotentialCavity
        Potential: Power12Potential
          u0: 0.18eV
          pbc_cutoff: 1e-06
          tiny: 1e-10
        temperature: 298.15K    Dielectric:
      Type: LinearDielectric
      Solvent dielectric constant: 1.77    Interaction: SurfaceInteraction
      subscript: surf
      Surface_tension: 0.0011484376791625194 eV/(Angstrom^2)
XC parameters: PBE with 2 nearest neighbor stencil

Memory estimate:
  Process memory now: 250.03 MiB
  Calculator: 36.00 MiB
    Density: 3.63 MiB
      Arrays: 2.66 MiB
      Localized functions: 0.39 MiB
      Mixer: 0.58 MiB
    Hamiltonian: 26.00 MiB
      Arrays: 1.74 MiB
      XC: 0.00 MiB
      Poisson: 1.99 MiB
      vbar: 0.03 MiB
      Solvation: 22.23 MiB
    Wavefunctions: 6.37 MiB
      Arrays psit_nG: 2.89 MiB
      Eigensolver: 3.44 MiB
      Projections: 0.00 MiB
      Projectors: 0.04 MiB

Total number of cores used: 16
Domain decomposition: 4 x 2 x 2

Number of atoms: 14
Number of atomic orbitals: 35
Number of bands in calculation: 30
Number of valence electrons: 42
Bands to converge: occupied

... initialized

Initializing position-dependent things.

Solvation position-dependent initialization:
  Atomic radii for Power12Potential:
    Type    Radius   No. of atoms
       H     1.090     7
       O     1.520     3
       N     1.550     1
       C     1.700     3

Density initialized from atomic densities
Creating initial wave functions:
  30 bands from LCAO basis set

        .------------------------------.  
       /|                              |  
      / |                              |  
     /  |                              |  
    /   |                              |  
   /    |                              |  
  /     |                              |  
 *      |                              |  
 |      |               O              |  
 |      |        H                     |  
 |      |        C  C  C               |  
 |      |     HH O       O             |  
 |      |           N                  |  
 |      |          H   H               |  
 |      |                              |  
 |      .------------------------------.  
 |     /                              /   
 |    /                              /    
 |   /                              /     
 |  /                              /      
 | /                              /       
 |/                              /        
 *------------------------------*         

Positions:
   0 N      6.367538    6.405185    4.628490    ( 0.0000,  0.0000,  0.0000)
   1 C      6.280376    6.759805    6.081131    ( 0.0000,  0.0000,  0.0000)
   2 C      7.671979    6.481343    6.734267    ( 0.0000,  0.0000,  0.0000)
   3 O      7.731171    6.588576    7.985724    ( 0.0000,  0.0000,  0.0000)
   4 H      5.980765    5.466145    4.465812    ( 0.0000,  0.0000,  0.0000)
   5 H      7.381492    6.370640    4.404470    ( 0.0000,  0.0000,  0.0000)
   6 H      6.097800    7.840892    6.146631    ( 0.0000,  0.0000,  0.0000)
   7 C      5.126051    6.028199    6.736264    ( 0.0000,  0.0000,  0.0000)
   8 O      5.365743    4.617341    6.620476    ( 0.0000,  0.0000,  0.0000)
   9 H      4.182366    6.298693    6.238770    ( 0.0000,  0.0000,  0.0000)
  10 H      5.073777    6.345134    7.788176    ( 0.0000,  0.0000,  0.0000)
  11 H      4.514594    4.159108    6.736367    ( 0.0000,  0.0000,  0.0000)
  12 O      8.617634    6.217250    5.933351    ( 0.0000,  0.0000,  0.0000)
  13 H      5.886465    7.069977    4.014276    ( 0.0000,  0.0000,  0.0000)

Unit cell:
           periodic     x           y           z      points  spacing
  1. axis:    no    12.800000    0.000000    0.000000    64     0.2000
  2. axis:    no     0.000000   12.000000    0.000000    60     0.2000
  3. axis:    no     0.000000    0.000000   12.000000    60     0.2000

  Lengths:  12.800000  12.000000  12.000000
  Angles:   90.000000  90.000000  90.000000

Effective grid spacing dv^(1/3) = 0.2000

     iter     time        total  log10-change:
                         energy   eigst   dens
iter:   1 21:50:07   -89.197845
iter:   2 21:50:08   -83.896645   +0.60  -0.74
iter:   3 21:50:09   -82.543464   +0.49  -0.94
iter:   4 21:50:09   -82.339101   -0.25  -1.17
iter:   5 21:50:10   -82.337932   -0.75  -1.59
iter:   6 21:50:11   -82.334559c  -1.20  -2.07
iter:   7 21:50:11   -82.332923c  -1.95  -2.39
iter:   8 21:50:11   -82.332396c  -2.36  -2.60
iter:   9 21:50:12   -82.332334c  -2.83  -3.08
iter:  10 21:50:12   -82.332370c  -3.17  -3.22
iter:  11 21:50:12   -82.332787c  -3.68  -3.68
iter:  12 21:50:13   -82.332627c  -4.01  -3.87
iter:  13 21:50:13   -82.332550c  -4.31  -4.03c
iter:  14 21:50:13   -82.332700c  -4.66  -4.50c
iter:  15 21:50:14   -82.332619c  -4.91  -4.65c
iter:  16 21:50:14   -82.332504c  -5.18  -4.79c
iter:  17 21:50:14   -82.332677c  -5.49  -5.02c
iter:  18 21:50:14   -82.332681c  -5.78  -5.17c
iter:  19 21:50:15   -82.332537c  -6.09  -5.32c
iter:  20 21:50:15   -82.332524c  -6.41  -5.46c
iter:  21 21:50:15   -82.332551c  -6.72  -5.75c
iter:  22 21:50:15   -82.332542c  -7.03  -5.88c
iter:  23 21:50:16   -82.332544c  -7.36  -6.12c
iter:  24 21:50:16   -82.332551c  -7.56c -6.23c

Converged after 24 iterations.

Dipole moment: (-1.987476, 0.144230, -1.670116) |e|*Ang

Energy contributions relative to reference atoms: (reference = -10774.593890)

Kinetic:        +84.406691
Potential:      -94.195879
External:        +0.000000
XC:             -75.536651
Entropy (-ST):   +0.000000
Local:           +2.827261
Interactions  
 surf:           +0.166027
--------------------------
Free energy:    -82.332551
Extrapolated:   -82.332551

Solvation cavity surface area: 144.56758
Solvation cavity volume: 143.87551
 Band  Eigenvalues  Occupancy
    0    -26.17451    2.00000
    1    -25.54790    2.00000
    2    -24.87584    2.00000
    3    -22.94705    2.00000
    4    -19.35340    2.00000
    5    -16.36951    2.00000
    6    -15.09381    2.00000
    7    -14.50328    2.00000
    8    -13.31928    2.00000
    9    -13.16408    2.00000
   10    -11.60148    2.00000
   11    -10.97040    2.00000
   12    -10.61621    2.00000
   13     -9.94802    2.00000
   14     -9.24939    2.00000
   15     -8.85707    2.00000
   16     -8.62041    2.00000
   17     -7.02804    2.00000
   18     -5.64825    2.00000
   19     -5.54900    2.00000
   20     -4.98275    2.00000
   21     -1.42816    0.00000
   22     -0.55735    0.00000
   23     -0.37781    0.00000
   24      0.19442    0.00000
   25      0.45778    0.00000
   26      0.60443    0.00000
   27      0.78899    0.00000
   28      1.06532    0.00000
   29      1.53112    0.00000

Fermi level: -3.20545

Gap: 3.555 eV
Transition (v -> c):
  (s=0, k=0, n=20, [0.00, 0.00, 0.00]) -> (s=0, k=0, n=21, [0.00, 0.00, 0.00])
Input parameters:
  external: {direction: [1. 0. 0.],
             name: ConstantElectricField,
             strength: 0.01169603524229075}

Initialize ...

species:
  N:
    name: Nitrogen
    id: f7500608b86eaa90eef8b1d9a670dc53
    Z: 7.0
    valence: 5
    core: 2
    charge: 0.0
    file: /home/fr/fr_fr/fr_ez1021/source/gpaw-setups/gpaw-setups-0.9.20000/N.PBE.gz
    compensation charges: {type: gauss,
                           rc: 0.18,
                           lmax: 2}
    cutoffs: {filter: 1.11,
              core: 0.96}
    valence states:
      #              energy  rcut
      - 2s(2.00)   -18.583   0.603
      - 2p(3.00)    -7.089   0.529
      -  s           8.629   0.603
      -  p          20.123   0.529
      -  d           0.000   0.577
  
    # Using partial waves for N as LCAO basis

  C:
    name: Carbon
    id: 4aa54d4b901d75f77cc0ea3eec22967b
    Z: 6.0
    valence: 4
    core: 2
    charge: 0.0
    file: /home/fr/fr_fr/fr_ez1021/source/gpaw-setups/gpaw-setups-0.9.20000/C.PBE.gz
    compensation charges: {type: gauss,
                           rc: 0.20,
                           lmax: 2}
    cutoffs: {filter: 1.14,
              core: 1.14}
    valence states:
      #              energy  rcut
      - 2s(2.00)   -13.751   0.635
      - 2p(2.00)    -5.284   0.635
      -  s          13.461   0.635
      -  p          21.927   0.635
      -  d           0.000   0.635
  
    # Using partial waves for C as LCAO basis

  O:
    name: Oxygen
    id: 32ecd46bf208036f09c70b0ec9a88b78
    Z: 8.0
    valence: 6
    core: 2
    charge: 0.0
    file: /home/fr/fr_fr/fr_ez1021/source/gpaw-setups/gpaw-setups-0.9.20000/O.PBE.gz
    compensation charges: {type: gauss,
                           rc: 0.21,
                           lmax: 2}
    cutoffs: {filter: 1.17,
              core: 0.83}
    valence states:
      #              energy  rcut
      - 2s(2.00)   -23.961   0.688
      - 2p(4.00)    -9.029   0.598
      -  s           3.251   0.688
      -  p          18.182   0.598
      -  d           0.000   0.619
  
    # Using partial waves for O as LCAO basis

  H:
    name: Hydrogen
    id: d65de229564ff8ea4db303e23b6d1ecf
    Z: 1.0
    valence: 1
    core: 0
    charge: 0.0
    file: /home/fr/fr_fr/fr_ez1021/source/gpaw-setups/gpaw-setups-0.9.20000/H.PBE.gz
    compensation charges: {type: gauss,
                           rc: 0.15,
                           lmax: 2}
    cutoffs: {filter: 0.85,
              core: 0.53}
    valence states:
      #              energy  rcut
      - 1s(1.00)    -6.494   0.476
      -  s          20.717   0.476
      -  p           0.000   0.476
  
    # Using partial waves for H as LCAO basis

Reference energy: -10774.593890  # eV

Spin-paired calculation

Convergence criteria:
 Maximum [total energy] change in last 3 cyles: 0.0005 eV / valence electron
 Maximum integral of absolute [dens]ity change: 0.0001 electrons / valence electron
 Maximum integral of absolute [eigenst]ate change: 4e-08 eV^2 / valence electron
 Maximum number of scf [iter]ations: 333
 (Square brackets indicate name in SCF output, whereas a 'c' in
 the SCF output indicates the quantity has converged.)

Symmetries present (total): 1

  ( 1  0  0)
  ( 0  1  0)
  ( 0  0  1)

1 k-point (Gamma)
1 k-point in the irreducible part of the Brillouin zone
       k-points in crystal coordinates                weights
   0:     0.00000000    0.00000000    0.00000000          1/1

Wave functions: Uniform real-space grid
  Kinetic energy operator: 6*3+1=19 point O(h^6) finite-difference Laplacian
  ScaLapack parameters: grid=1x1, blocksize=None
  Wavefunction extrapolation:
    Improved wavefunction reuse through dual PAW basis 

Occupation numbers: # Zero width 

Eigensolver
   Davidson(niter=2) 

Densities:
  Coarse grid: 64*60*60 grid
  Fine grid: 128*120*120 grid
  Total Charge: 0.000000 

Density mixing:
  Method: separate
  Backend: pulay
  Linear mixing parameter: 0.25
  old densities: 3
  Damping of long wavelength oscillations: 1  # (no daming) 

Hamiltonian:
  XC and Coulomb potentials evaluated on a 128*120*120 grid
  Using the PBE Exchange-Correlation functional
  External potential:
    Constant electric field: (0.012, 0.000, 0.000) V/Ang
  Interpolation: tri-quintic (5. degree polynomial)
  Poisson solver: Jacobi weighted FD solver with dielectric and 4 multi-grid levels
    Coarsest grid: 16 x 15 x 15 points
    Stencil: Weighted Finite Difference Operator
      6*3+1=19 point O(h^6) finite-difference Laplacian
      Finite-difference x-derivative with O(h^6) error (6 points)
      Finite-difference y-derivative with O(h^6) error (6 points)
      Finite-difference z-derivative with O(h^6) error (6 points)
    Max iterations: 1000
    Tolerance: 2.000000e-10

  Solvation:
    Cavity:  EffectivePotentialCavity
      Surface Calculator: GradientSurface with 3 nn
      Volume Calculator: KB51Volume
        compressibility: 72.57860092224
        temperature:     298.15
      EffectivePotentialCavity
        Potential: Power12Potential
          u0: 0.18eV
          pbc_cutoff: 1e-06
          tiny: 1e-10
        temperature: 298.15K    Dielectric:
      Type: LinearDielectric
      Solvent dielectric constant: 1.77    Interaction: SurfaceInteraction
      subscript: surf
      Surface_tension: 0.0011484376791625194 eV/(Angstrom^2)
XC parameters: PBE with 2 nearest neighbor stencil

Memory estimate:
  Process memory now: 250.55 MiB
  Calculator: 36.00 MiB
    Density: 3.63 MiB
      Arrays: 2.66 MiB
      Localized functions: 0.39 MiB
      Mixer: 0.58 MiB
    Hamiltonian: 26.00 MiB
      Arrays: 1.74 MiB
      XC: 0.00 MiB
      Poisson: 1.99 MiB
      vbar: 0.03 MiB
      Solvation: 22.23 MiB
    Wavefunctions: 6.37 MiB
      Arrays psit_nG: 2.89 MiB
      Eigensolver: 3.44 MiB
      Projections: 0.00 MiB
      Projectors: 0.04 MiB

Total number of cores used: 16
Domain decomposition: 4 x 2 x 2

Number of atoms: 14
Number of atomic orbitals: 35
Number of bands in calculation: 30
Number of valence electrons: 42
Bands to converge: occupied

... initialized

Initializing position-dependent things.

Solvation position-dependent initialization:
  Atomic radii for Power12Potential:
    Type    Radius   No. of atoms
       H     1.090     7
       O     1.520     3
       N     1.550     1
       C     1.700     3

Density initialized from atomic densities
Creating initial wave functions:
  30 bands from LCAO basis set

        .------------------------------.  
       /|                              |  
      / |                              |  
     /  |                              |  
    /   |                              |  
   /    |                              |  
  /     |                              |  
 *      |                              |  
 |      |               O              |  
 |      |        H                     |  
 |      |        C  C  C               |  
 |      |     HH O       O             |  
 |      |           N                  |  
 |      |          H   H               |  
 |      |                              |  
 |      .------------------------------.  
 |     /                              /   
 |    /                              /    
 |   /                              /     
 |  /                              /      
 | /                              /       
 |/                              /        
 *------------------------------*         

Positions:
   0 N      6.367538    6.405185    4.628490    ( 0.0000,  0.0000,  0.0000)
   1 C      6.280376    6.759805    6.081131    ( 0.0000,  0.0000,  0.0000)
   2 C      7.671979    6.481343    6.734267    ( 0.0000,  0.0000,  0.0000)
   3 O      7.731171    6.588576    7.985724    ( 0.0000,  0.0000,  0.0000)
   4 H      5.980765    5.466145    4.465812    ( 0.0000,  0.0000,  0.0000)
   5 H      7.381492    6.370640    4.404470    ( 0.0000,  0.0000,  0.0000)
   6 H      6.097800    7.840892    6.146631    ( 0.0000,  0.0000,  0.0000)
   7 C      5.126051    6.028199    6.736264    ( 0.0000,  0.0000,  0.0000)
   8 O      5.365743    4.617341    6.620476    ( 0.0000,  0.0000,  0.0000)
   9 H      4.182366    6.298693    6.238770    ( 0.0000,  0.0000,  0.0000)
  10 H      5.073777    6.345134    7.788176    ( 0.0000,  0.0000,  0.0000)
  11 H      4.514594    4.159108    6.736367    ( 0.0000,  0.0000,  0.0000)
  12 O      8.617634    6.217250    5.933351    ( 0.0000,  0.0000,  0.0000)
  13 H      5.886465    7.069977    4.014276    ( 0.0000,  0.0000,  0.0000)

Unit cell:
           periodic     x           y           z      points  spacing
  1. axis:    no    12.800000    0.000000    0.000000    64     0.2000
  2. axis:    no     0.000000   12.000000    0.000000    60     0.2000
  3. axis:    no     0.000000    0.000000   12.000000    60     0.2000

  Lengths:  12.800000  12.000000  12.000000
  Angles:   90.000000  90.000000  90.000000

Effective grid spacing dv^(1/3) = 0.2000

     iter     time        total  log10-change:
                         energy   eigst   dens
iter:   1 21:50:18   -89.167080
iter:   2 21:50:19   -83.872081   +0.60  -0.74
iter:   3 21:50:20   -82.519957   +0.49  -0.94
iter:   4 21:50:21   -82.315900   -0.25  -1.18
iter:   5 21:50:21   -82.314736   -0.75  -1.59
iter:   6 21:50:22   -82.311365c  -1.20  -2.07
iter:   7 21:50:22   -82.309731c  -1.95  -2.39
iter:   8 21:50:23   -82.309206c  -2.36  -2.60
iter:   9 21:50:23   -82.309144c  -2.83  -3.08
iter:  10 21:50:23   -82.309181c  -3.17  -3.22
iter:  11 21:50:24   -82.309595c  -3.68  -3.68
iter:  12 21:50:24   -82.309437c  -4.01  -3.87
iter:  13 21:50:24   -82.309360c  -4.31  -4.03c
iter:  14 21:50:25   -82.309510c  -4.66  -4.50c
iter:  15 21:50:25   -82.309429c  -4.91  -4.65c
iter:  16 21:50:25   -82.309314c  -5.18  -4.79c
iter:  17 21:50:25   -82.309486c  -5.48  -5.02c
iter:  18 21:50:26   -82.309491c  -5.78  -5.17c
iter:  19 21:50:26   -82.309347c  -6.09  -5.32c
iter:  20 21:50:26   -82.309334c  -6.41  -5.46c
iter:  21 21:50:26   -82.309361c  -6.71  -5.75c
iter:  22 21:50:27   -82.309353c  -7.03  -5.88c
iter:  23 21:50:27   -82.309354c  -7.35  -6.12c
iter:  24 21:50:27   -82.309361c  -7.55c -6.23c

Converged after 24 iterations.

Dipole moment: (-1.977942, 0.144284, -1.669921) |e|*Ang

Energy contributions relative to reference atoms: (reference = -10774.593890)

Kinetic:        +84.415501
Potential:      -94.207268
External:        +0.023134
XC:             -75.533883
Entropy (-ST):   +0.000000
Local:           +2.827127
Interactions  
 surf:           +0.166027
--------------------------
Free energy:    -82.309361
Extrapolated:   -82.309361

Solvation cavity surface area: 144.56758
Solvation cavity volume: 143.87551
 Band  Eigenvalues  Occupancy
    0    -26.18225    2.00000
    1    -25.54562    2.00000
    2    -24.86811    2.00000
    3    -22.93419    2.00000
    4    -19.35702    2.00000
    5    -16.37365    2.00000
    6    -15.09462    2.00000
    7    -14.50363    2.00000
    8    -13.32798    2.00000
    9    -13.16392    2.00000
   10    -11.59923    2.00000
   11    -10.97795    2.00000
   12    -10.61831    2.00000
   13     -9.93919    2.00000
   14     -9.23831    2.00000
   15     -8.85752    2.00000
   16     -8.61573    2.00000
   17     -7.03855    2.00000
   18     -5.63413    2.00000
   19     -5.53573    2.00000
   20     -4.97069    2.00000
   21     -1.43844    0.00000
   22     -0.57368    0.00000
   23     -0.38960    0.00000
   24      0.18762    0.00000
   25      0.46306    0.00000
   26      0.60027    0.00000
   27      0.78208    0.00000
   28      1.06437    0.00000
   29      1.53816    0.00000

Fermi level: -3.20456

Gap: 3.532 eV
Transition (v -> c):
  (s=0, k=0, n=20, [0.00, 0.00, 0.00]) -> (s=0, k=0, n=21, [0.00, 0.00, 0.00])
Input parameters:
  external: {direction: [0. 1. 0.],
             name: ConstantElectricField,
             strength: 0.01169603524229075}

Initialize ...

species:
  N:
    name: Nitrogen
    id: f7500608b86eaa90eef8b1d9a670dc53
    Z: 7.0
    valence: 5
    core: 2
    charge: 0.0
    file: /home/fr/fr_fr/fr_ez1021/source/gpaw-setups/gpaw-setups-0.9.20000/N.PBE.gz
    compensation charges: {type: gauss,
                           rc: 0.18,
                           lmax: 2}
    cutoffs: {filter: 1.11,
              core: 0.96}
    valence states:
      #              energy  rcut
      - 2s(2.00)   -18.583   0.603
      - 2p(3.00)    -7.089   0.529
      -  s           8.629   0.603
      -  p          20.123   0.529
      -  d           0.000   0.577
  
    # Using partial waves for N as LCAO basis

  C:
    name: Carbon
    id: 4aa54d4b901d75f77cc0ea3eec22967b
    Z: 6.0
    valence: 4
    core: 2
    charge: 0.0
    file: /home/fr/fr_fr/fr_ez1021/source/gpaw-setups/gpaw-setups-0.9.20000/C.PBE.gz
    compensation charges: {type: gauss,
                           rc: 0.20,
                           lmax: 2}
    cutoffs: {filter: 1.14,
              core: 1.14}
    valence states:
      #              energy  rcut
      - 2s(2.00)   -13.751   0.635
      - 2p(2.00)    -5.284   0.635
      -  s          13.461   0.635
      -  p          21.927   0.635
      -  d           0.000   0.635
  
    # Using partial waves for C as LCAO basis

  O:
    name: Oxygen
    id: 32ecd46bf208036f09c70b0ec9a88b78
    Z: 8.0
    valence: 6
    core: 2
    charge: 0.0
    file: /home/fr/fr_fr/fr_ez1021/source/gpaw-setups/gpaw-setups-0.9.20000/O.PBE.gz
    compensation charges: {type: gauss,
                           rc: 0.21,
                           lmax: 2}
    cutoffs: {filter: 1.17,
              core: 0.83}
    valence states:
      #              energy  rcut
      - 2s(2.00)   -23.961   0.688
      - 2p(4.00)    -9.029   0.598
      -  s           3.251   0.688
      -  p          18.182   0.598
      -  d           0.000   0.619
  
    # Using partial waves for O as LCAO basis

  H:
    name: Hydrogen
    id: d65de229564ff8ea4db303e23b6d1ecf
    Z: 1.0
    valence: 1
    core: 0
    charge: 0.0
    file: /home/fr/fr_fr/fr_ez1021/source/gpaw-setups/gpaw-setups-0.9.20000/H.PBE.gz
    compensation charges: {type: gauss,
                           rc: 0.15,
                           lmax: 2}
    cutoffs: {filter: 0.85,
              core: 0.53}
    valence states:
      #              energy  rcut
      - 1s(1.00)    -6.494   0.476
      -  s          20.717   0.476
      -  p           0.000   0.476
  
    # Using partial waves for H as LCAO basis

Reference energy: -10774.593890  # eV

Spin-paired calculation

Convergence criteria:
 Maximum [total energy] change in last 3 cyles: 0.0005 eV / valence electron
 Maximum integral of absolute [dens]ity change: 0.0001 electrons / valence electron
 Maximum integral of absolute [eigenst]ate change: 4e-08 eV^2 / valence electron
 Maximum number of scf [iter]ations: 333
 (Square brackets indicate name in SCF output, whereas a 'c' in
 the SCF output indicates the quantity has converged.)

Symmetries present (total): 1

  ( 1  0  0)
  ( 0  1  0)
  ( 0  0  1)

1 k-point (Gamma)
1 k-point in the irreducible part of the Brillouin zone
       k-points in crystal coordinates                weights
   0:     0.00000000    0.00000000    0.00000000          1/1

Wave functions: Uniform real-space grid
  Kinetic energy operator: 6*3+1=19 point O(h^6) finite-difference Laplacian
  ScaLapack parameters: grid=1x1, blocksize=None
  Wavefunction extrapolation:
    Improved wavefunction reuse through dual PAW basis 

Occupation numbers: # Zero width 

Eigensolver
   Davidson(niter=2) 

Densities:
  Coarse grid: 64*60*60 grid
  Fine grid: 128*120*120 grid
  Total Charge: 0.000000 

Density mixing:
  Method: separate
  Backend: pulay
  Linear mixing parameter: 0.25
  old densities: 3
  Damping of long wavelength oscillations: 1  # (no daming) 

Hamiltonian:
  XC and Coulomb potentials evaluated on a 128*120*120 grid
  Using the PBE Exchange-Correlation functional
  External potential:
    Constant electric field: (0.000, 0.012, 0.000) V/Ang
  Interpolation: tri-quintic (5. degree polynomial)
  Poisson solver: Jacobi weighted FD solver with dielectric and 4 multi-grid levels
    Coarsest grid: 16 x 15 x 15 points
    Stencil: Weighted Finite Difference Operator
      6*3+1=19 point O(h^6) finite-difference Laplacian
      Finite-difference x-derivative with O(h^6) error (6 points)
      Finite-difference y-derivative with O(h^6) error (6 points)
      Finite-difference z-derivative with O(h^6) error (6 points)
    Max iterations: 1000
    Tolerance: 2.000000e-10

  Solvation:
    Cavity:  EffectivePotentialCavity
      Surface Calculator: GradientSurface with 3 nn
      Volume Calculator: KB51Volume
        compressibility: 72.57860092224
        temperature:     298.15
      EffectivePotentialCavity
        Potential: Power12Potential
          u0: 0.18eV
          pbc_cutoff: 1e-06
          tiny: 1e-10
        temperature: 298.15K    Dielectric:
      Type: LinearDielectric
      Solvent dielectric constant: 1.77    Interaction: SurfaceInteraction
      subscript: surf
      Surface_tension: 0.0011484376791625194 eV/(Angstrom^2)
XC parameters: PBE with 2 nearest neighbor stencil

Memory estimate:
  Process memory now: 252.82 MiB
  Calculator: 36.00 MiB
    Density: 3.63 MiB
      Arrays: 2.66 MiB
      Localized functions: 0.39 MiB
      Mixer: 0.58 MiB
    Hamiltonian: 26.00 MiB
      Arrays: 1.74 MiB
      XC: 0.00 MiB
      Poisson: 1.99 MiB
      vbar: 0.03 MiB
      Solvation: 22.23 MiB
    Wavefunctions: 6.37 MiB
      Arrays psit_nG: 2.89 MiB
      Eigensolver: 3.44 MiB
      Projections: 0.00 MiB
      Projectors: 0.04 MiB

Total number of cores used: 16
Domain decomposition: 4 x 2 x 2

Number of atoms: 14
Number of atomic orbitals: 35
Number of bands in calculation: 30
Number of valence electrons: 42
Bands to converge: occupied

... initialized

Initializing position-dependent things.

Solvation position-dependent initialization:
  Atomic radii for Power12Potential:
    Type    Radius   No. of atoms
       H     1.090     7
       O     1.520     3
       N     1.550     1
       C     1.700     3

Density initialized from atomic densities
Creating initial wave functions:
  30 bands from LCAO basis set

        .------------------------------.  
       /|                              |  
      / |                              |  
     /  |                              |  
    /   |                              |  
   /    |                              |  
  /     |                              |  
 *      |                              |  
 |      |               O              |  
 |      |        H                     |  
 |      |        C  C  C               |  
 |      |     HH O       O             |  
 |      |           N                  |  
 |      |          H   H               |  
 |      |                              |  
 |      .------------------------------.  
 |     /                              /   
 |    /                              /    
 |   /                              /     
 |  /                              /      
 | /                              /       
 |/                              /        
 *------------------------------*         

Positions:
   0 N      6.367538    6.405185    4.628490    ( 0.0000,  0.0000,  0.0000)
   1 C      6.280376    6.759805    6.081131    ( 0.0000,  0.0000,  0.0000)
   2 C      7.671979    6.481343    6.734267    ( 0.0000,  0.0000,  0.0000)
   3 O      7.731171    6.588576    7.985724    ( 0.0000,  0.0000,  0.0000)
   4 H      5.980765    5.466145    4.465812    ( 0.0000,  0.0000,  0.0000)
   5 H      7.381492    6.370640    4.404470    ( 0.0000,  0.0000,  0.0000)
   6 H      6.097800    7.840892    6.146631    ( 0.0000,  0.0000,  0.0000)
   7 C      5.126051    6.028199    6.736264    ( 0.0000,  0.0000,  0.0000)
   8 O      5.365743    4.617341    6.620476    ( 0.0000,  0.0000,  0.0000)
   9 H      4.182366    6.298693    6.238770    ( 0.0000,  0.0000,  0.0000)
[...]
 |  /                              /      
 | /                              /       
 |/                              /        
 *------------------------------*         

Positions:
   0 N      6.367538    6.405185    4.628490    ( 0.0000,  0.0000,  0.0000)
   1 C      6.280376    6.759805    6.081131    ( 0.0000,  0.0000,  0.0000)
   2 C      7.671979    6.481343    6.734267    ( 0.0000,  0.0000,  0.0000)
   3 O      7.731171    6.588576    7.985724    ( 0.0000,  0.0000,  0.0000)
   4 H      5.980765    5.466145    4.465812    ( 0.0000,  0.0000,  0.0000)
   5 H      7.381492    6.370640    4.404470    ( 0.0000,  0.0000,  0.0000)
   6 H      6.097800    7.840892    6.146631    ( 0.0000,  0.0000,  0.0000)
   7 C      5.126051    6.028199    6.736264    ( 0.0000,  0.0000,  0.0000)
   8 O      5.365743    4.617341    6.620476    ( 0.0000,  0.0000,  0.0000)
   9 H      4.182366    6.298693    6.238770    ( 0.0000,  0.0000,  0.0000)
  10 H      5.073777    6.345134    7.788176    ( 0.0000,  0.0000,  0.0000)
  11 H      4.514594    4.159108    6.736367    ( 0.0000,  0.0000,  0.0000)
  12 O      8.617634    6.217250    5.933351    ( 0.0000,  0.0000,  0.0000)
  13 H      5.886465    7.069977    4.014276    ( 0.0000,  0.0000,  0.0000)

Unit cell:
           periodic     x           y           z      points  spacing
  1. axis:    no    12.800000    0.000000    0.000000    64     0.2000
  2. axis:    no     0.000000   12.000000    0.000000    60     0.2000
  3. axis:    no     0.000000    0.000000   12.000000    60     0.2000

  Lengths:  12.800000  12.000000  12.000000
  Angles:   90.000000  90.000000  90.000000

Effective grid spacing dv^(1/3) = 0.2000

     iter     time        total  log10-change:
                         energy   eigst   dens
iter:   1 21:55:00   -89.201776
iter:   2 21:55:01   -83.898426   +0.60  -0.74
iter:   3 21:55:02   -82.545753   +0.49  -0.94
iter:   4 21:55:03   -82.341181   -0.25  -1.17
iter:   5 21:55:03   -82.339988   -0.75  -1.59
iter:   6 21:55:04   -82.336610c  -1.20  -2.07
iter:   7 21:55:04   -82.334969c  -1.95  -2.39
iter:   8 21:55:05   -82.334441c  -2.36  -2.60
iter:   9 21:55:05   -82.334379c  -2.83  -3.08
iter:  10 21:55:06   -82.334415c  -3.17  -3.22
iter:  11 21:55:06   -82.334833c  -3.68  -3.67
iter:  12 21:55:06   -82.334672c  -4.01  -3.87
iter:  13 21:55:07   -82.334594c  -4.31  -4.03c
iter:  14 21:55:07   -82.334746c  -4.66  -4.50c
iter:  15 21:55:07   -82.334665c  -4.91  -4.65c
iter:  16 21:55:07   -82.334548c  -5.18  -4.79c
iter:  17 21:55:08   -82.334723c  -5.49  -5.02c
iter:  18 21:55:08   -82.334727c  -5.78  -5.17c
iter:  19 21:55:08   -82.334582c  -6.09  -5.32c
iter:  20 21:55:08   -82.334569c  -6.41  -5.46c
iter:  21 21:55:09   -82.334597c  -6.71  -5.75c
iter:  22 21:55:09   -82.334587c  -7.03  -5.88c
iter:  23 21:55:09   -82.334589c  -7.35  -6.12c
iter:  24 21:55:09   -82.334596c  -7.55c -6.22c

Converged after 24 iterations.

Dipole moment: (-1.987412, 0.152930, -1.669950) |e|*Ang

Energy contributions relative to reference atoms: (reference = -10774.593890)

Kinetic:        +84.410502
Potential:      -94.198004
External:        -0.002105
XC:             -75.538303
Entropy (-ST):   +0.000000
Local:           +2.827288
Interactions  
 surf:           +0.166027
--------------------------
Free energy:    -82.334596
Extrapolated:   -82.334596

Solvation cavity surface area: 144.56758
Solvation cavity volume: 143.87551
 Band  Eigenvalues  Occupancy
    0    -26.18062    2.00000
    1    -25.54625    2.00000
    2    -24.87054    2.00000
    3    -22.94135    2.00000
    4    -19.34995    2.00000
    5    -16.36745    2.00000
    6    -15.08836    2.00000
    7    -14.49973    2.00000
    8    -13.32260    2.00000
    9    -13.16027    2.00000
   10    -11.59806    2.00000
   11    -10.96994    2.00000
   12    -10.61341    2.00000
   13     -9.94412    2.00000
   14     -9.24529    2.00000
   15     -8.85887    2.00000
   16     -8.61753    2.00000
   17     -7.03647    2.00000
   18     -5.64251    2.00000
   19     -5.54407    2.00000
   20     -4.97656    2.00000
   21     -1.42353    0.00000
   22     -0.56191    0.00000
   23     -0.37607    0.00000
   24      0.20150    0.00000
   25      0.46390    0.00000
   26      0.60977    0.00000
   27      0.79619    0.00000
   28      1.07217    0.00000
   29      1.52569    0.00000

Fermi level: -3.20005

Gap: 3.553 eV
Transition (v -> c):
  (s=0, k=0, n=20, [0.00, 0.00, 0.00]) -> (s=0, k=0, n=21, [0.00, 0.00, 0.00])
Input parameters:
  external: {direction: [0. 0. 1.],
             name: ConstantElectricField,
             strength: 0.01376387225871682}

Initialize ...

species:
  N:
    name: Nitrogen
    id: f7500608b86eaa90eef8b1d9a670dc53
    Z: 7.0
    valence: 5
    core: 2
    charge: 0.0
    file: /home/fr/fr_fr/fr_ez1021/source/gpaw-setups/gpaw-setups-0.9.20000/N.PBE.gz
    compensation charges: {type: gauss,
                           rc: 0.18,
                           lmax: 2}
    cutoffs: {filter: 1.11,
              core: 0.96}
    valence states:
      #              energy  rcut
      - 2s(2.00)   -18.583   0.603
      - 2p(3.00)    -7.089   0.529
      -  s           8.629   0.603
      -  p          20.123   0.529
      -  d           0.000   0.577
  
    # Using partial waves for N as LCAO basis

  C:
    name: Carbon
    id: 4aa54d4b901d75f77cc0ea3eec22967b
    Z: 6.0
    valence: 4
    core: 2
    charge: 0.0
    file: /home/fr/fr_fr/fr_ez1021/source/gpaw-setups/gpaw-setups-0.9.20000/C.PBE.gz
    compensation charges: {type: gauss,
                           rc: 0.20,
                           lmax: 2}
    cutoffs: {filter: 1.14,
              core: 1.14}
    valence states:
      #              energy  rcut
      - 2s(2.00)   -13.751   0.635
      - 2p(2.00)    -5.284   0.635
      -  s          13.461   0.635
      -  p          21.927   0.635
      -  d           0.000   0.635
  
    # Using partial waves for C as LCAO basis

  O:
    name: Oxygen
    id: 32ecd46bf208036f09c70b0ec9a88b78
    Z: 8.0
    valence: 6
    core: 2
    charge: 0.0
    file: /home/fr/fr_fr/fr_ez1021/source/gpaw-setups/gpaw-setups-0.9.20000/O.PBE.gz
    compensation charges: {type: gauss,
                           rc: 0.21,
                           lmax: 2}
    cutoffs: {filter: 1.17,
              core: 0.83}
    valence states:
      #              energy  rcut
      - 2s(2.00)   -23.961   0.688
      - 2p(4.00)    -9.029   0.598
      -  s           3.251   0.688
      -  p          18.182   0.598
      -  d           0.000   0.619
  
    # Using partial waves for O as LCAO basis

  H:
    name: Hydrogen
    id: d65de229564ff8ea4db303e23b6d1ecf
    Z: 1.0
    valence: 1
    core: 0
    charge: 0.0
    file: /home/fr/fr_fr/fr_ez1021/source/gpaw-setups/gpaw-setups-0.9.20000/H.PBE.gz
    compensation charges: {type: gauss,
                           rc: 0.15,
                           lmax: 2}
    cutoffs: {filter: 0.85,
              core: 0.53}
    valence states:
      #              energy  rcut
      - 1s(1.00)    -6.494   0.476
      -  s          20.717   0.476
      -  p           0.000   0.476
  
    # Using partial waves for H as LCAO basis

Reference energy: -10774.593890  # eV

Spin-paired calculation

Convergence criteria:
 Maximum [total energy] change in last 3 cyles: 0.0005 eV / valence electron
 Maximum integral of absolute [dens]ity change: 0.0001 electrons / valence electron
 Maximum integral of absolute [eigenst]ate change: 4e-08 eV^2 / valence electron
 Maximum number of scf [iter]ations: 333
 (Square brackets indicate name in SCF output, whereas a 'c' in
 the SCF output indicates the quantity has converged.)

Symmetries present (total): 1

  ( 1  0  0)
  ( 0  1  0)
  ( 0  0  1)

1 k-point (Gamma)
1 k-point in the irreducible part of the Brillouin zone
       k-points in crystal coordinates                weights
   0:     0.00000000    0.00000000    0.00000000          1/1

Wave functions: Uniform real-space grid
  Kinetic energy operator: 6*3+1=19 point O(h^6) finite-difference Laplacian
  ScaLapack parameters: grid=1x1, blocksize=None
  Wavefunction extrapolation:
    Improved wavefunction reuse through dual PAW basis 

Occupation numbers: # Zero width 

Eigensolver
   Davidson(niter=2) 

Densities:
  Coarse grid: 64*60*60 grid
  Fine grid: 128*120*120 grid
  Total Charge: 0.000000 

Density mixing:
  Method: separate
  Backend: pulay
  Linear mixing parameter: 0.25
  old densities: 3
  Damping of long wavelength oscillations: 1  # (no daming) 

Hamiltonian:
  XC and Coulomb potentials evaluated on a 128*120*120 grid
  Using the PBE Exchange-Correlation functional
  External potential:
    Constant electric field: (0.000, 0.000, 0.014) V/Ang
  Interpolation: tri-quintic (5. degree polynomial)
  Poisson solver: Jacobi weighted FD solver with dielectric and 4 multi-grid levels
    Coarsest grid: 16 x 15 x 15 points
    Stencil: Weighted Finite Difference Operator
      6*3+1=19 point O(h^6) finite-difference Laplacian
      Finite-difference x-derivative with O(h^6) error (6 points)
      Finite-difference y-derivative with O(h^6) error (6 points)
      Finite-difference z-derivative with O(h^6) error (6 points)
    Max iterations: 1000
    Tolerance: 2.000000e-10

  Solvation:
    Cavity:  EffectivePotentialCavity
      Surface Calculator: GradientSurface with 3 nn
      Volume Calculator: KB51Volume
        compressibility: 72.57860092224
        temperature:     298.15
      EffectivePotentialCavity
        Potential: Power12Potential
          u0: 0.18eV
          pbc_cutoff: 1e-06
          tiny: 1e-10
        temperature: 298.15K    Dielectric:
      Type: LinearDielectric
      Solvent dielectric constant: 1.77    Interaction: SurfaceInteraction
      subscript: surf
      Surface_tension: 0.0011484376791625194 eV/(Angstrom^2)
XC parameters: PBE with 2 nearest neighbor stencil

Memory estimate:
  Process memory now: 280.50 MiB
  Calculator: 36.00 MiB
    Density: 3.63 MiB
      Arrays: 2.66 MiB
      Localized functions: 0.39 MiB
      Mixer: 0.58 MiB
    Hamiltonian: 26.00 MiB
      Arrays: 1.74 MiB
      XC: 0.00 MiB
      Poisson: 1.99 MiB
      vbar: 0.03 MiB
      Solvation: 22.23 MiB
    Wavefunctions: 6.37 MiB
      Arrays psit_nG: 2.89 MiB
      Eigensolver: 3.44 MiB
      Projections: 0.00 MiB
      Projectors: 0.04 MiB

Total number of cores used: 16
Domain decomposition: 4 x 2 x 2

Number of atoms: 14
Number of atomic orbitals: 35
Number of bands in calculation: 30
Number of valence electrons: 42
Bands to converge: occupied

... initialized

Initializing position-dependent things.

Solvation position-dependent initialization:
  Atomic radii for Power12Potential:
    Type    Radius   No. of atoms
       H     1.090     7
       O     1.520     3
       N     1.550     1
       C     1.700     3

Density initialized from atomic densities
Creating initial wave functions:
  30 bands from LCAO basis set

        .------------------------------.  
       /|                              |  
      / |                              |  
     /  |                              |  
    /   |                              |  
   /    |                              |  
  /     |                              |  
 *      |                              |  
 |      |               O              |  
 |      |        H                     |  
 |      |        C  C  C               |  
 |      |     HH O       O             |  
 |      |           N                  |  
 |      |          H   H               |  
 |      |                              |  
 |      .------------------------------.  
 |     /                              /   
 |    /                              /    
 |   /                              /     
 |  /                              /      
 | /                              /       
 |/                              /        
 *------------------------------*         

Positions:
   0 N      6.367538    6.405185    4.628490    ( 0.0000,  0.0000,  0.0000)
   1 C      6.280376    6.759805    6.081131    ( 0.0000,  0.0000,  0.0000)
   2 C      7.671979    6.481343    6.734267    ( 0.0000,  0.0000,  0.0000)
   3 O      7.731171    6.588576    7.985724    ( 0.0000,  0.0000,  0.0000)
   4 H      5.980765    5.466145    4.465812    ( 0.0000,  0.0000,  0.0000)
   5 H      7.381492    6.370640    4.404470    ( 0.0000,  0.0000,  0.0000)
   6 H      6.097800    7.840892    6.146631    ( 0.0000,  0.0000,  0.0000)
   7 C      5.126051    6.028199    6.736264    ( 0.0000,  0.0000,  0.0000)
   8 O      5.365743    4.617341    6.620476    ( 0.0000,  0.0000,  0.0000)
   9 H      4.182366    6.298693    6.238770    ( 0.0000,  0.0000,  0.0000)
  10 H      5.073777    6.345134    7.788176    ( 0.0000,  0.0000,  0.0000)
  11 H      4.514594    4.159108    6.736367    ( 0.0000,  0.0000,  0.0000)
  12 O      8.617634    6.217250    5.933351    ( 0.0000,  0.0000,  0.0000)
  13 H      5.886465    7.069977    4.014276    ( 0.0000,  0.0000,  0.0000)

Unit cell:
           periodic     x           y           z      points  spacing
  1. axis:    no    12.800000    0.000000    0.000000    64     0.2000
  2. axis:    no     0.000000   12.000000    0.000000    60     0.2000
  3. axis:    no     0.000000    0.000000   12.000000    60     0.2000

  Lengths:  12.800000  12.000000  12.000000
  Angles:   90.000000  90.000000  90.000000

Effective grid spacing dv^(1/3) = 0.2000

     iter     time        total  log10-change:
                         energy   eigst   dens
iter:   1 21:55:11   -89.166884
iter:   2 21:55:12   -83.871071   +0.60  -0.74
iter:   3 21:55:13   -82.520320   +0.49  -0.94
iter:   4 21:55:14   -82.316215   -0.25  -1.17
iter:   5 21:55:15   -82.315007   -0.75  -1.59
iter:   6 21:55:15   -82.311645c  -1.20  -2.07
iter:   7 21:55:16   -82.310014c  -1.95  -2.39
iter:   8 21:55:16   -82.309491c  -2.36  -2.61
iter:   9 21:55:16   -82.309427c  -2.83  -3.08
iter:  10 21:55:17   -82.309464c  -3.17  -3.22
iter:  11 21:55:17   -82.309880c  -3.68  -3.67
iter:  12 21:55:18   -82.309721c  -4.01  -3.87
iter:  13 21:55:18   -82.309642c  -4.31  -4.03c
iter:  14 21:55:18   -82.309793c  -4.66  -4.50c
iter:  15 21:55:18   -82.309712c  -4.91  -4.66c
iter:  16 21:55:19   -82.309598c  -5.18  -4.79c
iter:  17 21:55:19   -82.309769c  -5.48  -5.01c
iter:  18 21:55:19   -82.309775c  -5.78  -5.17c
iter:  19 21:55:19   -82.309630c  -6.09  -5.32c
iter:  20 21:55:20   -82.309618c  -6.41  -5.46c
iter:  21 21:55:20   -82.309645c  -6.71  -5.74c
iter:  22 21:55:20   -82.309636c  -7.03  -5.88c
iter:  23 21:55:20   -82.309637c  -7.35  -6.12c
iter:  24 21:55:21   -82.309645c  -7.55c -6.22c

Converged after 24 iterations.

Dipole moment: (-1.987244, 0.144395, -1.658342) |e|*Ang

Energy contributions relative to reference atoms: (reference = -10774.593890)

Kinetic:        +84.417713
Potential:      -94.209056
External:        +0.022825
XC:             -75.534330
Entropy (-ST):   +0.000000
Local:           +2.827175
Interactions  
 surf:           +0.166027
--------------------------
Free energy:    -82.309645
Extrapolated:   -82.309645

Solvation cavity surface area: 144.56758
Solvation cavity volume: 143.87551
 Band  Eigenvalues  Occupancy
    0    -26.16986    2.00000
    1    -25.54721    2.00000
    2    -24.87456    2.00000
    3    -22.93865    2.00000
    4    -19.35082    2.00000
    5    -16.36721    2.00000
    6    -15.10214    2.00000
    7    -14.50964    2.00000
    8    -13.31477    2.00000
    9    -13.16370    2.00000
   10    -11.59710    2.00000
   11    -10.96342    2.00000
   12    -10.61200    2.00000
   13     -9.94206    2.00000
   14     -9.23861    2.00000
   15     -8.84997    2.00000
   16     -8.61358    2.00000
   17     -7.02020    2.00000
   18     -5.63914    2.00000
   19     -5.54433    2.00000
   20     -4.97100    2.00000
   21     -1.44554    0.00000
   22     -0.56145    0.00000
   23     -0.38186    0.00000
   24      0.18338    0.00000
   25      0.46770    0.00000
   26      0.59820    0.00000
   27      0.79028    0.00000
   28      1.06119    0.00000
   29      1.52132    0.00000

Fermi level: -3.20827

Gap: 3.525 eV
Transition (v -> c):
  (s=0, k=0, n=20, [0.00, 0.00, 0.00]) -> (s=0, k=0, n=21, [0.00, 0.00, 0.00])
Input parameters:
  external: None

Timing:                              incl.     excl.
-----------------------------------------------------------
Hamiltonian:                        44.614     7.270   2.0% ||
 Atomic:                             0.008     0.008   0.0% |
  XC Correction:                     0.000     0.000   0.0% |
 Hartree integrate/restrict:         0.064     0.064   0.0% |
 Initialize Hamiltonian:             0.862     0.862   0.2% |
 Poisson:                           35.380    35.380   9.8% |---|
 XC 3D grid:                         1.010     1.010   0.3% |
 vbar:                               0.019     0.019   0.0% |
LCAO initialization:                 8.425     6.872   1.9% ||
 LCAO eigensolver:                   0.443     0.003   0.0% |
  Calculate projections:             0.001     0.001   0.0% |
  DenseAtomicCorrection:             0.001     0.001   0.0% |
  Distribute overlap matrix:         0.387     0.387   0.1% |
  Orbital Layouts:                   0.019     0.019   0.0% |
  Potential matrix:                  0.033     0.033   0.0% |
 LCAO to grid:                       0.152     0.152   0.0% |
 Set positions (LCAO WFS):           0.958     0.749   0.2% |
  Basic WFS set positions:           0.018     0.018   0.0% |
  Basis functions set positions:     0.003     0.003   0.0% |
  P tci:                             0.010     0.010   0.0% |
  ST tci:                            0.058     0.058   0.0% |
  mktci:                             0.120     0.120   0.0% |
SCF-cycle:                         300.261     0.621   0.2% |
 Davidson:                          97.121    35.851   9.9% |---|
  Apply hamiltonian:                 8.310     8.310   2.3% ||
  Subspace diag:                    13.606     0.104   0.0% |
   calc_h_matrix:                    9.044     1.439   0.4% |
    Apply hamiltonian:               7.605     7.605   2.1% ||
   diagonalize:                      1.010     1.010   0.3% |
   rotate_psi:                       3.448     3.448   1.0% |
  calc. matrices:                   31.521    12.301   3.4% ||
   Apply hamiltonian:               19.219    19.219   5.3% |-|
  diagonalize:                       1.185     1.185   0.3% |
  rotate_psi:                        6.649     6.649   1.8% ||
 Density:                            4.084     0.016   0.0% |
  Atomic density matrices:           0.975     0.975   0.3% |
  Mix:                               2.399     2.399   0.7% |
  Multipole moments:                 0.144     0.144   0.0% |
  Pseudo density:                    0.549     0.536   0.1% |
   Symmetrize density:               0.012     0.012   0.0% |
 Hamiltonian:                      197.392    27.455   7.6% |--|
  Atomic:                            0.196     0.192   0.1% |
   XC Correction:                    0.004     0.004   0.0% |
  Hartree integrate/restrict:        1.266     1.266   0.4% |
  Poisson:                         144.883   144.883  40.2% |---------------|
  XC 3D grid:                       23.311    23.311   6.5% |--|
  vbar:                              0.281     0.281   0.1% |
 Orthonormalize:                     1.043     0.004   0.0% |
  calc_s_matrix:                     0.039     0.039   0.0% |
  inverse-cholesky:                  0.906     0.906   0.3% |
  projections:                       0.001     0.001   0.0% |
  rotate_psi_s:                      0.093     0.093   0.0% |
Set symmetry:                        0.029     0.029   0.0% |
Other:                               7.346     7.346   2.0% ||
-----------------------------------------------------------
Total:                                       360.676 100.0%

Memory usage: 280.90 MiB
Date: Fri Oct  6 21:55:21 2023
