
  ___ ___ ___ _ _ _  
 |   |   |_  | | | | 
 | | | | | . | | | | 
 |__ |  _|___|_____|  23.9.2b1
 |___|_|             

User:   fr_ez1021@n0830
Date:   Fri Oct  6 21:42:32 2023
Arch:   x86_64
Pid:    1704683
CWD:    /lustre/home/fr/fr_fr/fr_ez1021/sims/amino_acids_publish/scripts
Python: 3.8.3
gpaw:   /home/fr/fr_fr/fr_ez1021/source/origin/gpaw/gpaw (68657f1768)
_gpaw:  /home/fr/fr_fr/fr_ez1021/source/origin/gpaw/build/lib.linux-x86_64-3.8/
        _gpaw.cpython-38-x86_64-linux-gnu.so (d6c5f22bb1)
ase:    /home/fr/fr_fr/fr_ez1021/source/origin/ase/ase (version 3.23.0b1-4bd916e410)
numpy:  /opt/bwhpc/common/numlib/python_numpy/1.19.0_python-3.8.3/lib/python3.8/site-packages/numpy-1.19.0-py3.8-linux-x86_64.egg/numpy (version 1.19.0)
scipy:  /opt/bwhpc/common/numlib/python_scipy/1.5.0_numpy-1.19.0_python-3.8.3/lib/python3.8/site-packages/scipy-1.5.0-py3.8-linux-x86_64.egg/scipy (version 1.5.0)
libxc:  5.1.7
units:  Angstrom and eV
cores: 16
OpenMP: False
OMP_NUM_THREADS: 1

Input parameters:
  mode: fd
  xc: PBE

Implicit solvation parameters:
Cavity:  EffectivePotentialCavity
  Surface Calculator: GradientSurface with 3 nn
  Volume Calculator: KB51Volume
    compressibility: 72.57860092224
    temperature:     298.15
  EffectivePotentialCavity
    Potential: Power12Potential
      u0: 0.18eV
      pbc_cutoff: 1e-06
      tiny: 1e-10
    temperature: 298.15K
Dielectric:
  Type: LinearDielectric
  Solvent dielectric constant: 1.77
Interaction: SurfaceInteraction
  subscript: surf
  Surface_tension: 0.0011484376791625194 eV/(Angstrom^2)

System changes: positions, numbers, cell, pbc, initial_charges, initial_magmoms 

Initialize ...

species:
  N:
    name: Nitrogen
    id: f7500608b86eaa90eef8b1d9a670dc53
    Z: 7.0
    valence: 5
    core: 2
    charge: 0.0
    file: /home/fr/fr_fr/fr_ez1021/source/gpaw-setups/gpaw-setups-0.9.20000/N.PBE.gz
    compensation charges: {type: gauss,
                           rc: 0.18,
                           lmax: 2}
    cutoffs: {filter: 1.11,
              core: 0.96}
    valence states:
      #              energy  rcut
      - 2s(2.00)   -18.583   0.603
      - 2p(3.00)    -7.089   0.529
      -  s           8.629   0.603
      -  p          20.123   0.529
      -  d           0.000   0.577
  
    # Using partial waves for N as LCAO basis

  C:
    name: Carbon
    id: 4aa54d4b901d75f77cc0ea3eec22967b
    Z: 6.0
    valence: 4
    core: 2
    charge: 0.0
    file: /home/fr/fr_fr/fr_ez1021/source/gpaw-setups/gpaw-setups-0.9.20000/C.PBE.gz
    compensation charges: {type: gauss,
                           rc: 0.20,
                           lmax: 2}
    cutoffs: {filter: 1.14,
              core: 1.14}
    valence states:
      #              energy  rcut
      - 2s(2.00)   -13.751   0.635
      - 2p(2.00)    -5.284   0.635
      -  s          13.461   0.635
      -  p          21.927   0.635
      -  d           0.000   0.635
  
    # Using partial waves for C as LCAO basis

  O:
    name: Oxygen
    id: 32ecd46bf208036f09c70b0ec9a88b78
    Z: 8.0
    valence: 6
    core: 2
    charge: 0.0
    file: /home/fr/fr_fr/fr_ez1021/source/gpaw-setups/gpaw-setups-0.9.20000/O.PBE.gz
    compensation charges: {type: gauss,
                           rc: 0.21,
                           lmax: 2}
    cutoffs: {filter: 1.17,
              core: 0.83}
    valence states:
      #              energy  rcut
      - 2s(2.00)   -23.961   0.688
      - 2p(4.00)    -9.029   0.598
      -  s           3.251   0.688
      -  p          18.182   0.598
      -  d           0.000   0.619
  
    # Using partial waves for O as LCAO basis

  H:
    name: Hydrogen
    id: d65de229564ff8ea4db303e23b6d1ecf
    Z: 1.0
    valence: 1
    core: 0
    charge: 0.0
    file: /home/fr/fr_fr/fr_ez1021/source/gpaw-setups/gpaw-setups-0.9.20000/H.PBE.gz
    compensation charges: {type: gauss,
                           rc: 0.15,
                           lmax: 2}
    cutoffs: {filter: 0.85,
              core: 0.53}
    valence states:
      #              energy  rcut
      - 1s(1.00)    -6.494   0.476
      -  s          20.717   0.476
      -  p           0.000   0.476
  
    # Using partial waves for H as LCAO basis

Reference energy: -11827.202330  # eV

Spin-paired calculation

Convergence criteria:
 Maximum [total energy] change in last 3 cyles: 0.0005 eV / valence electron
 Maximum integral of absolute [dens]ity change: 0.0001 electrons / valence electron
 Maximum integral of absolute [eigenst]ate change: 4e-08 eV^2 / valence electron
 Maximum number of scf [iter]ations: 333
 (Square brackets indicate name in SCF output, whereas a 'c' in
 the SCF output indicates the quantity has converged.)

Symmetries present (total): 1

  ( 1  0  0)
  ( 0  1  0)
  ( 0  0  1)

1 k-point (Gamma)
1 k-point in the irreducible part of the Brillouin zone
       k-points in crystal coordinates                weights
   0:     0.00000000    0.00000000    0.00000000          1/1

Wave functions: Uniform real-space grid
  Kinetic energy operator: 6*3+1=19 point O(h^6) finite-difference Laplacian
  ScaLapack parameters: grid=1x1, blocksize=None
  Wavefunction extrapolation:
    Improved wavefunction reuse through dual PAW basis 

Occupation numbers: # Zero width 

Eigensolver
   Davidson(niter=2) 

Densities:
  Coarse grid: 68*60*64 grid
  Fine grid: 136*120*128 grid
  Total Charge: 0.000000 

Density mixing:
  Method: separate
  Backend: pulay
  Linear mixing parameter: 0.25
  old densities: 3
  Damping of long wavelength oscillations: 1  # (no daming) 

Hamiltonian:
  XC and Coulomb potentials evaluated on a 136*120*128 grid
  Using the PBE Exchange-Correlation functional
  Interpolation: tri-quintic (5. degree polynomial)
  Poisson solver: Jacobi weighted FD solver with dielectric and 4 multi-grid levels
    Coarsest grid: 17 x 15 x 16 points
    Stencil: Weighted Finite Difference Operator
      6*3+1=19 point O(h^6) finite-difference Laplacian
      Finite-difference x-derivative with O(h^6) error (6 points)
      Finite-difference y-derivative with O(h^6) error (6 points)
      Finite-difference z-derivative with O(h^6) error (6 points)
    Max iterations: 1000
    Tolerance: 2.000000e-10

  Solvation:
    Cavity:  EffectivePotentialCavity
      Surface Calculator: GradientSurface with 3 nn
      Volume Calculator: KB51Volume
        compressibility: 72.57860092224
        temperature:     298.15
      EffectivePotentialCavity
        Potential: Power12Potential
          u0: 0.18eV
          pbc_cutoff: 1e-06
          tiny: 1e-10
        temperature: 298.15K    Dielectric:
      Type: LinearDielectric
      Solvent dielectric constant: 1.77    Interaction: SurfaceInteraction
      subscript: surf
      Surface_tension: 0.0011484376791625194 eV/(Angstrom^2)
XC parameters: PBE with 2 nearest neighbor stencil

Memory estimate:
  Process memory now: 162.73 MiB
  Calculator: 41.62 MiB
    Density: 4.15 MiB
      Arrays: 3.03 MiB
      Localized functions: 0.46 MiB
      Mixer: 0.66 MiB
    Hamiltonian: 29.55 MiB
      Arrays: 1.98 MiB
      XC: 0.00 MiB
      Poisson: 2.27 MiB
      vbar: 0.04 MiB
      Solvation: 25.27 MiB
    Wavefunctions: 7.92 MiB
      Arrays psit_nG: 3.62 MiB
      Eigensolver: 4.25 MiB
      Projections: 0.00 MiB
      Projectors: 0.05 MiB

Total number of cores used: 16
Domain decomposition: 4 x 2 x 2

Number of atoms: 17
Number of atomic orbitals: 41
Number of bands in calculation: 33
Number of valence electrons: 48
Bands to converge: occupied

... initialized

Initializing position-dependent things.

Solvation position-dependent initialization:
  Atomic radii for Power12Potential:
    Type    Radius   No. of atoms
       H     1.090     9
       O     1.520     3
       N     1.550     1
       C     1.700     4

Density initialized from atomic densities
Creating initial wave functions:
  33 bands from LCAO basis set

        .--------------------------------.  
       /|                                |  
      / |                                |  
     /  |                                |  
    /   |                                |  
   /    |                                |  
  /     |                                |  
 *      |                                |  
 |      |                O               |  
 |      |           H    C               |  
 |      |            H      O            |  
 |      |      H    C O                  |  
 |      |      HC   H     H              |  
 |      |        H    HH                 |  
 |      |                                |  
 |      |                                |  
 |      .--------------------------------.  
 |     /                                /   
 |    /                                /    
 |   /                                /     
 |  /                                /      
 | /                                /       
 |/                                /        
 *--------------------------------*         

Positions:
   0 N      7.555716    6.827788    5.070431    ( 0.0000,  0.0000,  0.0000)
   1 C      7.034114    7.148351    6.438337    ( 0.0000,  0.0000,  0.0000)
   2 C      8.215756    7.724285    7.278717    ( 0.0000,  0.0000,  0.0000)
   3 O      9.308713    7.906675    6.663352    ( 0.0000,  0.0000,  0.0000)
   4 H      8.448236    7.352817    4.987324    ( 0.0000,  0.0000,  0.0000)
   5 H      6.907899    7.081240    4.318827    ( 0.0000,  0.0000,  0.0000)
   6 H      6.295620    7.952729    6.331011    ( 0.0000,  0.0000,  0.0000)
   7 C      6.351724    5.928311    7.067990    ( 0.0000,  0.0000,  0.0000)
   8 O      7.303116    4.849818    6.960271    ( 0.0000,  0.0000,  0.0000)
   9 C      5.013950    5.568868    6.432868    ( 0.0000,  0.0000,  0.0000)
  10 H      6.198943    6.179165    8.130025    ( 0.0000,  0.0000,  0.0000)
  11 H      6.838326    4.011825    7.138635    ( 0.0000,  0.0000,  0.0000)
  12 H      4.601415    4.674674    6.923259    ( 0.0000,  0.0000,  0.0000)
  13 H      5.108511    5.367955    5.355154    ( 0.0000,  0.0000,  0.0000)
  14 H      4.291287    6.385158    6.572758    ( 0.0000,  0.0000,  0.0000)
  15 O      7.959726    7.988175    8.481173    ( 0.0000,  0.0000,  0.0000)
  16 H      7.782390    5.825601    4.993259    ( 0.0000,  0.0000,  0.0000)

Unit cell:
           periodic     x           y           z      points  spacing
  1. axis:    no    13.600000    0.000000    0.000000    68     0.2000
  2. axis:    no     0.000000   12.000000    0.000000    60     0.2000
  3. axis:    no     0.000000    0.000000   12.800000    64     0.2000

  Lengths:  13.600000  12.000000  12.800000
  Angles:   90.000000  90.000000  90.000000

Effective grid spacing dv^(1/3) = 0.2000

     iter     time        total  log10-change:
                         energy   eigst   dens
iter:   1 21:42:35  -107.276423
iter:   2 21:42:36  -100.907721   +0.61  -0.72
iter:   3 21:42:37   -99.181744   +0.59  -0.92
iter:   4 21:42:38   -98.970751   -0.20  -1.17
iter:   5 21:42:38   -98.964603   -0.65  -1.54
iter:   6 21:42:39   -98.961243c  -1.12  -2.09
iter:   7 21:42:40   -98.958982c  -1.87  -2.33
iter:   8 21:42:40   -98.957698c  -2.22  -2.49
iter:   9 21:42:41   -98.957379c  -2.50  -2.88
iter:  10 21:42:41   -98.957368c  -3.12  -2.95
iter:  11 21:42:42   -98.957377c  -3.43  -3.29
iter:  12 21:42:42   -98.957417c  -3.83  -3.53
iter:  13 21:42:42   -98.957589c  -4.23  -3.86
iter:  14 21:42:43   -98.957569c  -4.56  -4.16c
iter:  15 21:42:43   -98.957573c  -4.87  -4.34c
iter:  16 21:42:43   -98.957548c  -5.24  -4.60c
iter:  17 21:42:44   -98.957461c  -5.59  -4.76c
iter:  18 21:42:44   -98.957340c  -5.94  -5.01c
iter:  19 21:42:44   -98.957326c  -6.21  -5.28c
iter:  20 21:42:45   -98.957453c  -6.47  -5.74c
iter:  21 21:42:45   -98.957466c  -6.76  -5.77c
iter:  22 21:42:45   -98.957443c  -7.02  -5.72c
iter:  23 21:42:46   -98.957467c  -7.36  -5.51c
iter:  24 21:42:46   -98.957481c  -7.61c -5.54c

Converged after 24 iterations.

Dipole moment: (-1.479993, -1.068947, -1.782076) |e|*Ang

Energy contributions relative to reference atoms: (reference = -11827.202330)

Kinetic:        +99.666734
Potential:     -111.497192
External:        +0.000000
XC:             -90.365434
Entropy (-ST):   +0.000000
Local:           +3.051477
Interactions  
 surf:           +0.186935
--------------------------
Free energy:    -98.957481
Extrapolated:   -98.957481

Solvation cavity surface area: 162.77308
Solvation cavity volume: 166.82481
 Band  Eigenvalues  Occupancy
    0    -26.22173    2.00000
    1    -25.53912    2.00000
    2    -24.86319    2.00000
    3    -22.98148    2.00000
    4    -19.79334    2.00000
    5    -17.98254    2.00000
    6    -15.73628    2.00000
    7    -14.98804    2.00000
    8    -14.48484    2.00000
    9    -13.26001    2.00000
   10    -12.72505    2.00000
   11    -11.84273    2.00000
   12    -11.25099    2.00000
   13    -10.79598    2.00000
   14    -10.33416    2.00000
   15     -9.64211    2.00000
   16     -9.55842    2.00000
   17     -9.22394    2.00000
   18     -8.81775    2.00000
   19     -8.51958    2.00000
   20     -7.03232    2.00000
   21     -5.69101    2.00000
   22     -5.57093    2.00000
   23     -5.02021    2.00000
   24     -1.44330    0.00000
   25     -0.48553    0.00000
   26     -0.39095    0.00000
   27     -0.01390    0.00000
   28      0.26642    0.00000
   29      0.54919    0.00000
   30      0.64684    0.00000
   31      1.11748    0.00000
   32      1.21463    0.00000

Fermi level: -3.23176

Gap: 3.577 eV
Transition (v -> c):
  (s=0, k=0, n=23, [0.00, 0.00, 0.00]) -> (s=0, k=0, n=24, [0.00, 0.00, 0.00])
Input parameters:
  external: {direction: [1. 0. 0.],
             name: ConstantElectricField,
             strength: 0.01}

Initialize ...

species:
  N:
    name: Nitrogen
    id: f7500608b86eaa90eef8b1d9a670dc53
    Z: 7.0
    valence: 5
    core: 2
    charge: 0.0
    file: /home/fr/fr_fr/fr_ez1021/source/gpaw-setups/gpaw-setups-0.9.20000/N.PBE.gz
    compensation charges: {type: gauss,
                           rc: 0.18,
                           lmax: 2}
    cutoffs: {filter: 1.11,
              core: 0.96}
    valence states:
      #              energy  rcut
      - 2s(2.00)   -18.583   0.603
      - 2p(3.00)    -7.089   0.529
      -  s           8.629   0.603
      -  p          20.123   0.529
      -  d           0.000   0.577
  
    # Using partial waves for N as LCAO basis

  C:
    name: Carbon
    id: 4aa54d4b901d75f77cc0ea3eec22967b
    Z: 6.0
    valence: 4
    core: 2
    charge: 0.0
    file: /home/fr/fr_fr/fr_ez1021/source/gpaw-setups/gpaw-setups-0.9.20000/C.PBE.gz
    compensation charges: {type: gauss,
                           rc: 0.20,
                           lmax: 2}
    cutoffs: {filter: 1.14,
              core: 1.14}
    valence states:
      #              energy  rcut
      - 2s(2.00)   -13.751   0.635
      - 2p(2.00)    -5.284   0.635
      -  s          13.461   0.635
      -  p          21.927   0.635
      -  d           0.000   0.635
  
    # Using partial waves for C as LCAO basis

  O:
    name: Oxygen
    id: 32ecd46bf208036f09c70b0ec9a88b78
    Z: 8.0
    valence: 6
    core: 2
    charge: 0.0
    file: /home/fr/fr_fr/fr_ez1021/source/gpaw-setups/gpaw-setups-0.9.20000/O.PBE.gz
    compensation charges: {type: gauss,
                           rc: 0.21,
                           lmax: 2}
    cutoffs: {filter: 1.17,
              core: 0.83}
    valence states:
      #              energy  rcut
      - 2s(2.00)   -23.961   0.688
      - 2p(4.00)    -9.029   0.598
      -  s           3.251   0.688
      -  p          18.182   0.598
      -  d           0.000   0.619
  
    # Using partial waves for O as LCAO basis

  H:
    name: Hydrogen
    id: d65de229564ff8ea4db303e23b6d1ecf
    Z: 1.0
    valence: 1
    core: 0
    charge: 0.0
    file: /home/fr/fr_fr/fr_ez1021/source/gpaw-setups/gpaw-setups-0.9.20000/H.PBE.gz
    compensation charges: {type: gauss,
                           rc: 0.15,
                           lmax: 2}
    cutoffs: {filter: 0.85,
              core: 0.53}
    valence states:
      #              energy  rcut
      - 1s(1.00)    -6.494   0.476
      -  s          20.717   0.476
      -  p           0.000   0.476
  
    # Using partial waves for H as LCAO basis

Reference energy: -11827.202330  # eV

Spin-paired calculation

Convergence criteria:
 Maximum [total energy] change in last 3 cyles: 0.0005 eV / valence electron
 Maximum integral of absolute [dens]ity change: 0.0001 electrons / valence electron
 Maximum integral of absolute [eigenst]ate change: 4e-08 eV^2 / valence electron
 Maximum number of scf [iter]ations: 333
 (Square brackets indicate name in SCF output, whereas a 'c' in
 the SCF output indicates the quantity has converged.)

Symmetries present (total): 1

  ( 1  0  0)
  ( 0  1  0)
  ( 0  0  1)

1 k-point (Gamma)
1 k-point in the irreducible part of the Brillouin zone
       k-points in crystal coordinates                weights
   0:     0.00000000    0.00000000    0.00000000          1/1

Wave functions: Uniform real-space grid
  Kinetic energy operator: 6*3+1=19 point O(h^6) finite-difference Laplacian
  ScaLapack parameters: grid=1x1, blocksize=None
  Wavefunction extrapolation:
    Improved wavefunction reuse through dual PAW basis 

Occupation numbers: # Zero width 

Eigensolver
   Davidson(niter=2) 

Densities:
  Coarse grid: 68*60*64 grid
  Fine grid: 136*120*128 grid
  Total Charge: 0.000000 

Density mixing:
  Method: separate
  Backend: pulay
  Linear mixing parameter: 0.25
  old densities: 3
  Damping of long wavelength oscillations: 1  # (no daming) 

Hamiltonian:
  XC and Coulomb potentials evaluated on a 136*120*128 grid
  Using the PBE Exchange-Correlation functional
  External potential:
    Constant electric field: (0.010, 0.000, 0.000) V/Ang
  Interpolation: tri-quintic (5. degree polynomial)
  Poisson solver: Jacobi weighted FD solver with dielectric and 4 multi-grid levels
    Coarsest grid: 17 x 15 x 16 points
    Stencil: Weighted Finite Difference Operator
      6*3+1=19 point O(h^6) finite-difference Laplacian
      Finite-difference x-derivative with O(h^6) error (6 points)
      Finite-difference y-derivative with O(h^6) error (6 points)
      Finite-difference z-derivative with O(h^6) error (6 points)
    Max iterations: 1000
    Tolerance: 2.000000e-10

  Solvation:
    Cavity:  EffectivePotentialCavity
      Surface Calculator: GradientSurface with 3 nn
      Volume Calculator: KB51Volume
        compressibility: 72.57860092224
        temperature:     298.15
      EffectivePotentialCavity
        Potential: Power12Potential
          u0: 0.18eV
          pbc_cutoff: 1e-06
          tiny: 1e-10
        temperature: 298.15K    Dielectric:
      Type: LinearDielectric
      Solvent dielectric constant: 1.77    Interaction: SurfaceInteraction
      subscript: surf
      Surface_tension: 0.0011484376791625194 eV/(Angstrom^2)
XC parameters: PBE with 2 nearest neighbor stencil

Memory estimate:
  Process memory now: 246.46 MiB
  Calculator: 41.62 MiB
    Density: 4.15 MiB
      Arrays: 3.03 MiB
      Localized functions: 0.46 MiB
      Mixer: 0.66 MiB
    Hamiltonian: 29.55 MiB
      Arrays: 1.98 MiB
      XC: 0.00 MiB
      Poisson: 2.27 MiB
      vbar: 0.04 MiB
      Solvation: 25.27 MiB
    Wavefunctions: 7.92 MiB
      Arrays psit_nG: 3.62 MiB
      Eigensolver: 4.25 MiB
      Projections: 0.00 MiB
      Projectors: 0.05 MiB

Total number of cores used: 16
Domain decomposition: 4 x 2 x 2

Number of atoms: 17
Number of atomic orbitals: 41
Number of bands in calculation: 33
Number of valence electrons: 48
Bands to converge: occupied

... initialized

Initializing position-dependent things.

Solvation position-dependent initialization:
  Atomic radii for Power12Potential:
    Type    Radius   No. of atoms
       H     1.090     9
       O     1.520     3
       N     1.550     1
       C     1.700     4

Density initialized from atomic densities
Creating initial wave functions:
  33 bands from LCAO basis set

        .--------------------------------.  
       /|                                |  
      / |                                |  
     /  |                                |  
    /   |                                |  
   /    |                                |  
  /     |                                |  
 *      |                                |  
 |      |                O               |  
 |      |           H    C               |  
 |      |            H      O            |  
 |      |      H    C O                  |  
 |      |      HC   H     H              |  
 |      |        H    HH                 |  
 |      |                                |  
 |      |                                |  
 |      .--------------------------------.  
 |     /                                /   
 |    /                                /    
 |   /                                /     
 |  /                                /      
 | /                                /       
 |/                                /        
 *--------------------------------*         

Positions:
   0 N      7.555716    6.827788    5.070431    ( 0.0000,  0.0000,  0.0000)
   1 C      7.034114    7.148351    6.438337    ( 0.0000,  0.0000,  0.0000)
   2 C      8.215756    7.724285    7.278717    ( 0.0000,  0.0000,  0.0000)
   3 O      9.308713    7.906675    6.663352    ( 0.0000,  0.0000,  0.0000)
   4 H      8.448236    7.352817    4.987324    ( 0.0000,  0.0000,  0.0000)
   5 H      6.907899    7.081240    4.318827    ( 0.0000,  0.0000,  0.0000)
   6 H      6.295620    7.952729    6.331011    ( 0.0000,  0.0000,  0.0000)
   7 C      6.351724    5.928311    7.067990    ( 0.0000,  0.0000,  0.0000)
   8 O      7.303116    4.849818    6.960271    ( 0.0000,  0.0000,  0.0000)
   9 C      5.013950    5.568868    6.432868    ( 0.0000,  0.0000,  0.0000)
  10 H      6.198943    6.179165    8.130025    ( 0.0000,  0.0000,  0.0000)
  11 H      6.838326    4.011825    7.138635    ( 0.0000,  0.0000,  0.0000)
  12 H      4.601415    4.674674    6.923259    ( 0.0000,  0.0000,  0.0000)
  13 H      5.108511    5.367955    5.355154    ( 0.0000,  0.0000,  0.0000)
  14 H      4.291287    6.385158    6.572758    ( 0.0000,  0.0000,  0.0000)
  15 O      7.959726    7.988175    8.481173    ( 0.0000,  0.0000,  0.0000)
  16 H      7.782390    5.825601    4.993259    ( 0.0000,  0.0000,  0.0000)

Unit cell:
           periodic     x           y           z      points  spacing
  1. axis:    no    13.600000    0.000000    0.000000    68     0.2000
  2. axis:    no     0.000000   12.000000    0.000000    60     0.2000
  3. axis:    no     0.000000    0.000000   12.800000    64     0.2000

  Lengths:  13.600000  12.000000  12.800000
  Angles:   90.000000  90.000000  90.000000

Effective grid spacing dv^(1/3) = 0.2000

     iter     time        total  log10-change:
                         energy   eigst   dens
iter:   1 21:42:48  -107.257202
iter:   2 21:42:49  -100.892437   +0.61  -0.72
iter:   3 21:42:50   -99.166780   +0.59  -0.92
iter:   4 21:42:51   -98.955890   -0.20  -1.17
iter:   5 21:42:52   -98.949800   -0.65  -1.54
iter:   6 21:42:53   -98.946475c  -1.12  -2.09
iter:   7 21:42:53   -98.944224c  -1.86  -2.33
iter:   8 21:42:54   -98.942943c  -2.22  -2.49
iter:   9 21:42:54   -98.942625c  -2.49  -2.88
iter:  10 21:42:55   -98.942615c  -3.12  -2.95
iter:  11 21:42:55   -98.942625c  -3.43  -3.29
iter:  12 21:42:56   -98.942666c  -3.83  -3.53
iter:  13 21:42:56   -98.942838c  -4.23  -3.86
iter:  14 21:42:56   -98.942817c  -4.56  -4.16c
iter:  15 21:42:57   -98.942822c  -4.87  -4.34c
iter:  16 21:42:57   -98.942795c  -5.23  -4.60c
iter:  17 21:42:57   -98.942709c  -5.59  -4.76c
iter:  18 21:42:58   -98.942588c  -5.94  -5.01c
iter:  19 21:42:58   -98.942575c  -6.21  -5.28c
iter:  20 21:42:58   -98.942702c  -6.46  -5.74c
iter:  21 21:42:59   -98.942714c  -6.75  -5.76c
iter:  22 21:42:59   -98.942693c  -7.02  -5.71c
iter:  23 21:42:59   -98.942711c  -7.36  -5.51c
iter:  24 21:42:59   -98.942734c  -7.61c -5.52c

Converged after 24 iterations.

Dipole moment: (-1.470393, -1.067888, -1.782078) |e|*Ang

Energy contributions relative to reference atoms: (reference = -11827.202330)

Kinetic:        +99.670107
Potential:     -111.503025
External:        +0.014704
XC:             -90.362821
Entropy (-ST):   +0.000000
Local:           +3.051367
Interactions  
 surf:           +0.186935
--------------------------
Free energy:    -98.942734
Extrapolated:   -98.942734

Solvation cavity surface area: 162.77308
Solvation cavity volume: 166.82481
 Band  Eigenvalues  Occupancy
    0    -26.21969    2.00000
    1    -25.53104    2.00000
    2    -24.85378    2.00000
    3    -22.96886    2.00000
    4    -19.79600    2.00000
    5    -17.98633    2.00000
    6    -15.73616    2.00000
    7    -14.98302    2.00000
    8    -14.48068    2.00000
    9    -13.25677    2.00000
   10    -12.72277    2.00000
   11    -11.84274    2.00000
   12    -11.25603    2.00000
   13    -10.79459    2.00000
   14    -10.33181    2.00000
   15     -9.64829    2.00000
   16     -9.55723    2.00000
   17     -9.21329    2.00000
   18     -8.81245    2.00000
   19     -8.51602    2.00000
   20     -7.03213    2.00000
   21     -5.67754    2.00000
   22     -5.55736    2.00000
   23     -5.00885    2.00000
   24     -1.44432    0.00000
   25     -0.48970    0.00000
   26     -0.39303    0.00000
   27     -0.02377    0.00000
   28      0.26869    0.00000
   29      0.55051    0.00000
   30      0.63899    0.00000
   31      1.10542    0.00000
   32      1.18190    0.00000

Fermi level: -3.22659

Gap: 3.565 eV
Transition (v -> c):
  (s=0, k=0, n=23, [0.00, 0.00, 0.00]) -> (s=0, k=0, n=24, [0.00, 0.00, 0.00])
Input parameters:
  external: {direction: [0. 1. 0.],
             name: ConstantElectricField,
             strength: 0.01}

Initialize ...

species:
  N:
    name: Nitrogen
    id: f7500608b86eaa90eef8b1d9a670dc53
    Z: 7.0
    valence: 5
    core: 2
    charge: 0.0
    file: /home/fr/fr_fr/fr_ez1021/source/gpaw-setups/gpaw-setups-0.9.20000/N.PBE.gz
    compensation charges: {type: gauss,
                           rc: 0.18,
                           lmax: 2}
    cutoffs: {filter: 1.11,
              core: 0.96}
    valence states:
      #              energy  rcut
      - 2s(2.00)   -18.583   0.603
      - 2p(3.00)    -7.089   0.529
      -  s           8.629   0.603
      -  p          20.123   0.529
      -  d           0.000   0.577
  
    # Using partial waves for N as LCAO basis

  C:
    name: Carbon
    id: 4aa54d4b901d75f77cc0ea3eec22967b
    Z: 6.0
    valence: 4
    core: 2
    charge: 0.0
    file: /home/fr/fr_fr/fr_ez1021/source/gpaw-setups/gpaw-setups-0.9.20000/C.PBE.gz
    compensation charges: {type: gauss,
                           rc: 0.20,
                           lmax: 2}
    cutoffs: {filter: 1.14,
              core: 1.14}
    valence states:
      #              energy  rcut
      - 2s(2.00)   -13.751   0.635
      - 2p(2.00)    -5.284   0.635
      -  s          13.461   0.635
      -  p          21.927   0.635
      -  d           0.000   0.635
  
    # Using partial waves for C as LCAO basis

  O:
    name: Oxygen
    id: 32ecd46bf208036f09c70b0ec9a88b78
    Z: 8.0
    valence: 6
    core: 2
    charge: 0.0
    file: /home/fr/fr_fr/fr_ez1021/source/gpaw-setups/gpaw-setups-0.9.20000/O.PBE.gz
    compensation charges: {type: gauss,
                           rc: 0.21,
                           lmax: 2}
    cutoffs: {filter: 1.17,
              core: 0.83}
    valence states:
      #              energy  rcut
      - 2s(2.00)   -23.961   0.688
      - 2p(4.00)    -9.029   0.598
      -  s           3.251   0.688
      -  p          18.182   0.598
      -  d           0.000   0.619
  
    # Using partial waves for O as LCAO basis

  H:
    name: Hydrogen
    id: d65de229564ff8ea4db303e23b6d1ecf
    Z: 1.0
    valence: 1
    core: 0
    charge: 0.0
    file: /home/fr/fr_fr/fr_ez1021/source/gpaw-setups/gpaw-setups-0.9.20000/H.PBE.gz
    compensation charges: {type: gauss,
                           rc: 0.15,
                           lmax: 2}
    cutoffs: {filter: 0.85,
              core: 0.53}
    valence states:
      #              energy  rcut
      - 1s(1.00)    -6.494   0.476
      -  s          20.717   0.476
      -  p           0.000   0.476
  
    # Using partial waves for H as LCAO basis

Reference energy: -11827.202330  # eV

Spin-paired calculation

Convergence criteria:
 Maximum [total energy] change in last 3 cyles: 0.0005 eV / valence electron
 Maximum integral of absolute [dens]ity change: 0.0001 electrons / valence electron
 Maximum integral of absolute [eigenst]ate change: 4e-08 eV^2 / valence electron
 Maximum number of scf [iter]ations: 333
 (Square brackets indicate name in SCF output, whereas a 'c' in
 the SCF output indicates the quantity has converged.)

Symmetries present (total): 1

  ( 1  0  0)
  ( 0  1  0)
  ( 0  0  1)

1 k-point (Gamma)
1 k-point in the irreducible part of the Brillouin zone
       k-points in crystal coordinates                weights
   0:     0.00000000    0.00000000    0.00000000          1/1

Wave functions: Uniform real-space grid
  Kinetic energy operator: 6*3+1=19 point O(h^6) finite-difference Laplacian
  ScaLapack parameters: grid=1x1, blocksize=None
  Wavefunction extrapolation:
    Improved wavefunction reuse through dual PAW basis 

Occupation numbers: # Zero width 

Eigensolver
   Davidson(niter=2) 

Densities:
  Coarse grid: 68*60*64 grid
  Fine grid: 136*120*128 grid
  Total Charge: 0.000000 

Density mixing:
  Method: separate
  Backend: pulay
  Linear mixing parameter: 0.25
  old densities: 3
  Damping of long wavelength oscillations: 1  # (no daming) 

Hamiltonian:
  XC and Coulomb potentials evaluated on a 136*120*128 grid
  Using the PBE Exchange-Correlation functional
  External potential:
    Constant electric field: (0.000, 0.010, 0.000) V/Ang
  Interpolation: tri-quintic (5. degree polynomial)
  Poisson solver: Jacobi weighted FD solver with dielectric and 4 multi-grid levels
    Coarsest grid: 17 x 15 x 16 points
    Stencil: Weighted Finite Difference Operator
      6*3+1=19 point O(h^6) finite-difference Laplacian
      Finite-difference x-derivative with O(h^6) error (6 points)
      Finite-difference y-derivative with O(h^6) error (6 points)
      Finite-difference z-derivative with O(h^6) error (6 points)
    Max iterations: 1000
    Tolerance: 2.000000e-10

  Solvation:
    Cavity:  EffectivePotentialCavity
      Surface Calculator: GradientSurface with 3 nn
      Volume Calculator: KB51Volume
        compressibility: 72.57860092224
        temperature:     298.15
      EffectivePotentialCavity
        Potential: Power12Potential
          u0: 0.18eV
          pbc_cutoff: 1e-06
          tiny: 1e-10
        temperature: 298.15K    Dielectric:
      Type: LinearDielectric
      Solvent dielectric constant: 1.77    Interaction: SurfaceInteraction
      subscript: surf
      Surface_tension: 0.0011484376791625194 eV/(Angstrom^2)
XC parameters: PBE with 2 nearest neighbor stencil

Memory estimate:
  Process memory now: 251.92 MiB
  Calculator: 41.62 MiB
    Density: 4.15 MiB
      Arrays: 3.03 MiB
      Localized functions: 0.46 MiB
      Mixer: 0.66 MiB
    Hamiltonian: 29.55 MiB
      Arrays: 1.98 MiB
      XC: 0.00 MiB
      Poisson: 2.27 MiB
      vbar: 0.04 MiB
      Solvation: 25.27 MiB
    Wavefunctions: 7.92 MiB
      Arrays psit_nG: 3.62 MiB
      Eigensolver: 4.25 MiB
      Projections: 0.00 MiB
      Projectors: 0.05 MiB

Total number of cores used: 16
Domain decomposition: 4 x 2 x 2

Number of atoms: 17
Number of atomic orbitals: 41
Number of bands in calculation: 33
Number of valence electrons: 48
Bands to converge: occupied

... initialized

Initializing position-dependent things.

Solvation position-dependent initialization:
  Atomic radii for Power12Potential:
    Type    Radius   No. of atoms
       H     1.090     9
       O     1.520     3
       N     1.550     1
       C     1.700     4

Density initialized from atomic densities
Creating initial wave functions:
  33 bands from LCAO basis set

        .--------------------------------.  
       /|                                |  
      / |                                |  
     /  |                                |  
    /   |                                |  
   /    |                                |  
  /     |                                |  
 *      |                                |  
 |      |                O               |  
 |      |           H    C               |  
 |      |            H      O            |  
 |      |      H    C O                  |  
 |      |      HC   H     H              |  
 |      |        H    HH                 |  
 |      |                                |  
 |      |                                |  
 |      .--------------------------------.  
 |     /                                /   
 |    /                                /    
 |   /                                /     
 |  /                                /      
 | /                                /       
 |/                                /        
 *--------------------------------*         

Positions:
   0 N      7.555716    6.827788    5.070431    ( 0.0000,  0.0000,  0.0000)
   1 C      7.034114    7.148351    6.438337    ( 0.0000,  0.0000,  0.0000)
   2 C      8.215756    7.724285    7.278717    ( 0.0000,  0.0000,  0.0000)
   3 O      9.308713    7.906675    6.663352    ( 0.0000,  0.0000,  0.0000)
   4 H      8.448236    7.352817    4.987324    ( 0.0000,  0.0000,  0.0000)
   5 H      6.907899    7.081240    4.318827    ( 0.0000,  0.0000,  0.0000)
   6 H      6.295620    7.952729    6.331011    ( 0.0000,  0.0000,  0.0000)
   7 C      6.351724    5.928311    7.067990    ( 0.0000,  0.0000,  0.0000)
   8 O      7.303116    4.849818    6.960271    ( 0.0000,  0.0000,  0.0000)
   9 C      5.013950    5.568868    6.432868    ( 0.0000,  0.0000,  0.0000)
  10 H      6.198943    6.179165    8.130025    ( 0.0000,  0.0000,  0.0000)
  11 H      6.838326    4.011825    7.138635    ( 0.0000,  0.0000,  0.0000)
  12 H      4.601415    4.674674    6.923259    ( 0.0000,  0.0000,  0.0000)
  13 H      5.108511    5.367955    5.355154    ( 0.0000,  0.0000,  0.0000)
  14 H      4.291287    6.385158    6.572758    ( 0.0000,  0.0000,  0.0000)
  15 O      7.959726    7.988175    8.481173    ( 0.0000,  0.0000,  0.0000)
  16 H      7.782390    5.825601    4.993259    ( 0.0000,  0.0000,  0.0000)

Unit cell:
           periodic     x           y           z      points  spacing
  1. axis:    no    13.600000    0.000000    0.000000    68     0.2000
  2. axis:    no     0.000000   12.000000    0.000000    60     0.2000
  3. axis:    no     0.000000    0.000000   12.800000    64     0.2000

  Lengths:  13.600000  12.000000  12.800000
  Angles:   90.000000  90.000000  90.000000

Effective grid spacing dv^(1/3) = 0.2000

     iter     time        total  log10-change:
                         energy   eigst   dens
iter:   1 21:43:02  -107.263195
iter:   2 21:43:03  -100.896134   +0.61  -0.72
iter:   3 21:43:04   -99.171008   +0.59  -0.92
iter:   4 21:43:05   -98.960053   -0.20  -1.17
iter:   5 21:43:06   -98.953936   -0.65  -1.54
iter:   6 21:43:06   -98.950590c  -1.12  -2.09
iter:   7 21:43:07   -98.948331c  -1.87  -2.33
iter:   8 21:43:07   -98.947048c  -2.22  -2.49
iter:   9 21:43:08   -98.946729c  -2.49  -2.88
iter:  10 21:43:08   -98.946719c  -3.12  -2.95
iter:  11 21:43:09   -98.946729c  -3.43  -3.29
iter:  12 21:43:09   -98.946770c  -3.83  -3.53
iter:  13 21:43:10   -98.946942c  -4.23  -3.86
iter:  14 21:43:10   -98.946921c  -4.56  -4.16c
iter:  15 21:43:10   -98.946925c  -4.87  -4.34c
iter:  16 21:43:11   -98.946900c  -5.23  -4.60c
iter:  17 21:43:11   -98.946813c  -5.59  -4.76c
iter:  18 21:43:11   -98.946692c  -5.94  -5.00c
iter:  19 21:43:12   -98.946678c  -6.21  -5.28c
iter:  20 21:43:12   -98.946805c  -6.46  -5.74c
iter:  21 21:43:12   -98.946819c  -6.75  -5.77c
iter:  22 21:43:12   -98.946795c  -7.02  -5.72c
iter:  23 21:43:13   -98.946820c  -7.36  -5.51c
iter:  24 21:43:13   -98.946832c  -7.60c -5.54c

Converged after 24 iterations.

Dipole moment: (-1.478933, -1.060624, -1.781458) |e|*Ang

Energy contributions relative to reference atoms: (reference = -11827.202330)

Kinetic:        +99.673070
Potential:     -111.504184
External:        +0.010606
XC:             -90.364684
Entropy (-ST):   +0.000000
Local:           +3.051424
Interactions  
 surf:           +0.186935
--------------------------
Free energy:    -98.946832
Extrapolated:   -98.946832

Solvation cavity surface area: 162.77308
Solvation cavity volume: 166.82481
 Band  Eigenvalues  Occupancy
    0    -26.22362    2.00000
    1    -25.53051    2.00000
    2    -24.85135    2.00000
    3    -22.96607    2.00000
    4    -19.79090    2.00000
    5    -17.97894    2.00000
    6    -15.73415    2.00000
    7    -14.97940    2.00000
    8    -14.47880    2.00000
    9    -13.25569    2.00000
   10    -12.72010    2.00000
   11    -11.83883    2.00000
   12    -11.25047    2.00000
   13    -10.78920    2.00000
   14    -10.32691    2.00000
   15     -9.64319    2.00000
   16     -9.55144    2.00000
   17     -9.21051    2.00000
   18     -8.81162    2.00000
   19     -8.51411    2.00000
   20     -7.03645    2.00000
   21     -5.67495    2.00000
   22     -5.55605    2.00000
   23     -5.00466    2.00000
   24     -1.43910    0.00000
   25     -0.49598    0.00000
   26     -0.38487    0.00000
   27     -0.01602    0.00000
   28      0.27126    0.00000
   29      0.55659    0.00000
   30      0.65068    0.00000
   31      1.12206    0.00000
   32      1.20997    0.00000

Fermi level: -3.22188

Gap: 3.566 eV
Transition (v -> c):
  (s=0, k=0, n=23, [0.00, 0.00, 0.00]) -> (s=0, k=0, n=24, [0.00, 0.00, 0.00])
Input parameters:
  external: {direction: [0. 0. 1.],
             name: ConstantElectricField,
             strength: 0.01}

Initialize ...

species:
  N:
    name: Nitrogen
    id: f7500608b86eaa90eef8b1d9a670dc53
    Z: 7.0
    valence: 5
    core: 2
    charge: 0.0
    file: /home/fr/fr_fr/fr_ez1021/source/gpaw-setups/gpaw-setups-0.9.20000/N.PBE.gz
    compensation charges: {type: gauss,
                           rc: 0.18,
                           lmax: 2}
    cutoffs: {filter: 1.11,
              core: 0.96}
    valence states:
      #              energy  rcut
      - 2s(2.00)   -18.583   0.603
      - 2p(3.00)    -7.089   0.529
      -  s           8.629   0.603
      -  p          20.123   0.529
      -  d           0.000   0.577
  
    # Using partial waves for N as LCAO basis

  C:
    name: Carbon
    id: 4aa54d4b901d75f77cc0ea3eec22967b
    Z: 6.0
    valence: 4
    core: 2
    charge: 0.0
    file: /home/fr/fr_fr/fr_ez1021/source/gpaw-setups/gpaw-setups-0.9.20000/C.PBE.gz
    compensation charges: {type: gauss,
                           rc: 0.20,
                           lmax: 2}
    cutoffs: {filter: 1.14,
              core: 1.14}
    valence states:
      #              energy  rcut
      - 2s(2.00)   -13.751   0.635
      - 2p(2.00)    -5.284   0.635
      -  s          13.461   0.635
      -  p          21.927   0.635
      -  d           0.000   0.635
  
    # Using partial waves for C as LCAO basis

  O:
    name: Oxygen
    id: 32ecd46bf208036f09c70b0ec9a88b78
    Z: 8.0
    valence: 6
    core: 2
    charge: 0.0
    file: /home/fr/fr_fr/fr_ez1021/source/gpaw-setups/gpaw-setups-0.9.20000/O.PBE.gz
    compensation charges: {type: gauss,
                           rc: 0.21,
                           lmax: 2}
    cutoffs: {filter: 1.17,
              core: 0.83}
    valence states:
      #              energy  rcut
      - 2s(2.00)   -23.961   0.688
      - 2p(4.00)    -9.029   0.598
      -  s           3.251   0.688
      -  p          18.182   0.598
      -  d           0.000   0.619
  
    # Using partial waves for O as LCAO basis

  H:
    name: Hydrogen
    id: d65de229564ff8ea4db303e23b6d1ecf
    Z: 1.0
    valence: 1
    core: 0
    charge: 0.0
    file: /home/fr/fr_fr/fr_ez1021/source/gpaw-setups/gpaw-setups-0.9.20000/H.PBE.gz
    compensation charges: {type: gauss,
                           rc: 0.15,
                           lmax: 2}
    cutoffs: {filter: 0.85,
              core: 0.53}
    valence states:
      #              energy  rcut
      - 1s(1.00)    -6.494   0.476
      -  s          20.717   0.476
      -  p           0.000   0.476
  
    # Using partial waves for H as LCAO basis

Reference energy: -11827.202330  # eV

Spin-paired calculation

Convergence criteria:
 Maximum [total energy] change in last 3 cyles: 0.0005 eV / valence electron
 Maximum integral of absolute [dens]ity change: 0.0001 electrons / valence electron
 Maximum integral of absolute [eigenst]ate change: 4e-08 eV^2 / valence electron
 Maximum number of scf [iter]ations: 333
 (Square brackets indicate name in SCF output, whereas a 'c' in
 the SCF output indicates the quantity has converged.)

Symmetries present (total): 1

  ( 1  0  0)
  ( 0  1  0)
  ( 0  0  1)

1 k-point (Gamma)
1 k-point in the irreducible part of the Brillouin zone
       k-points in crystal coordinates                weights
   0:     0.00000000    0.00000000    0.00000000          1/1

Wave functions: Uniform real-space grid
  Kinetic energy operator: 6*3+1=19 point O(h^6) finite-difference Laplacian
  ScaLapack parameters: grid=1x1, blocksize=None
  Wavefunction extrapolation:
    Improved wavefunction reuse through dual PAW basis 

Occupation numbers: # Zero width 

Eigensolver
   Davidson(niter=2) 

Densities:
  Coarse grid: 68*60*64 grid
  Fine grid: 136*120*128 grid
  Total Charge: 0.000000 

Density mixing:
  Method: separate
  Backend: pulay
  Linear mixing parameter: 0.25
  old densities: 3
  Damping of long wavelength oscillations: 1  # (no daming) 

Hamiltonian:
  XC and Coulomb potentials evaluated on a 136*120*128 grid
  Using the PBE Exchange-Correlation functional
  External potential:
    Constant electric field: (0.000, 0.000, 0.010) V/Ang
  Interpolation: tri-quintic (5. degree polynomial)
  Poisson solver: Jacobi weighted FD solver with dielectric and 4 multi-grid levels
    Coarsest grid: 17 x 15 x 16 points
    Stencil: Weighted Finite Difference Operator
      6*3+1=19 point O(h^6) finite-difference Laplacian
      Finite-difference x-derivative with O(h^6) error (6 points)
      Finite-difference y-derivative with O(h^6) error (6 points)
      Finite-difference z-derivative with O(h^6) error (6 points)
    Max iterations: 1000
    Tolerance: 2.000000e-10

  Solvation:
    Cavity:  EffectivePotentialCavity
      Surface Calculator: GradientSurface with 3 nn
      Volume Calculator: KB51Volume
        compressibility: 72.57860092224
        temperature:     298.15
      EffectivePotentialCavity
        Potential: Power12Potential
          u0: 0.18eV
          pbc_cutoff: 1e-06
          tiny: 1e-10
        temperature: 298.15K    Dielectric:
      Type: LinearDielectric
      Solvent dielectric constant: 1.77    Interaction: SurfaceInteraction
      subscript: surf
      Surface_tension: 0.0011484376791625194 eV/(Angstrom^2)
XC parameters: PBE with 2 nearest neighbor stencil

Memory estimate:
  Process memory now: 258.68 MiB
  Calculator: 41.62 MiB
    Density: 4.15 MiB
      Arrays: 3.03 MiB
      Localized functions: 0.46 MiB
      Mixer: 0.66 MiB
    Hamiltonian: 29.55 MiB
      Arrays: 1.98 MiB
      XC: 0.00 MiB
      Poisson: 2.27 MiB
      vbar: 0.04 MiB
      Solvation: 25.27 MiB
    Wavefunctions: 7.92 MiB
      Arrays psit_nG: 3.62 MiB
      Eigensolver: 4.25 MiB
      Projections: 0.00 MiB
      Projectors: 0.05 MiB

Total number of cores used: 16
Domain decomposition: 4 x 2 x 2

Number of atoms: 17
Number of atomic orbitals: 41
Number of bands in calculation: 33
Number of valence electrons: 48
Bands to converge: occupied

... initialized

Initializing position-dependent things.

Solvation position-dependent initialization:
  Atomic radii for Power12Potential:
    Type    Radius   No. of atoms
       H     1.090     9
       O     1.520     3
       N     1.550     1
       C     1.700     4

Density initialized from atomic densities
Creating initial wave functions:
  33 bands from LCAO basis set

        .--------------------------------.  
       /|                                |  
      / |                                |  
     /  |                                |  
    /   |                                |  
   /    |                                |  
  /     |                                |  
 *      |                                |  
 |      |                O               |  
 |      |           H    C               |  
 |      |            H      O            |  
 |      |      H    C O                  |  
 |      |      HC   H     H              |  
 |      |        H    HH                 |  
 |      |                                |  
 |      |                                |  
 |      .--------------------------------.  
 |     /                                /   
 |    /                                /    
 |   /                                /     
 |  /                                /      
 | /                                /       
 |/                                /        
 *--------------------------------*         

Positions:
   0 N      7.555716    6.827788    5.070431    ( 0.0000,  0.0000,  0.0000)
   1 C      7.034114    7.148351    6.438337    ( 0.0000,  0.0000,  0.0000)
   2 C      8.215756    7.724285    7.278717    ( 0.0000,  0.0000,  0.0000)
   3 O      9.308713    7.906675    6.663352    ( 0.0000,  0.0000,  0.0000)
   4 H      8.448236    7.352817    4.987324    ( 0.0000,  0.0000,  0.0000)
   5 H      6.907899    7.081240    4.318827    ( 0.0000,  0.0000,  0.0000)
   6 H      6.295620    7.952729    6.331011    ( 0.0000,  0.0000,  0.0000)
   7 C      6.351724    5.928311    7.067990    ( 0.0000,  0.0000,  0.0000)
   8 O      7.303116    4.849818    6.960271    ( 0.0000,  0.0000,  0.0000)
   9 C      5.013950    5.568868    6.432868    ( 0.0000,  0.0000,  0.0000)
  10 H      6.198943    6.179165    8.130025    ( 0.0000,  0.0000,  0.0000)
  11 H      6.838326    4.011825    7.138635    ( 0.0000,  0.0000,  0.0000)
  12 H      4.601415    4.674674    6.923259    ( 0.0000,  0.0000,  0.0000)
  13 H      5.108511    5.367955    5.355154    ( 0.0000,  0.0000,  0.0000)
  14 H      4.291287    6.385158    6.572758    ( 0.0000,  0.0000,  0.0000)
  15 O      7.959726    7.988175    8.481173    ( 0.0000,  0.0000,  0.0000)
  16 H      7.782390    5.825601    4.993259    ( 0.0000,  0.0000,  0.0000)

Unit cell:
           periodic     x           y           z      points  spacing
  1. axis:    no    13.600000    0.000000    0.000000    68     0.2000
  2. axis:    no     0.000000   12.000000    0.000000    60     0.2000
  3. axis:    no     0.000000    0.000000   12.800000    64     0.2000

  Lengths:  13.600000  12.000000  12.800000
  Angles:   90.000000  90.000000  90.000000

Effective grid spacing dv^(1/3) = 0.2000

     iter     time        total  log10-change:
                         energy   eigst   dens
iter:   1 21:43:15  -107.252179
iter:   2 21:43:17  -100.887960   +0.61  -0.72
iter:   3 21:43:18   -99.163901   +0.58  -0.92
iter:   4 21:43:18   -98.953036   -0.20  -1.17
iter:   5 21:43:19   -98.946831   -0.65  -1.54
iter:   6 21:43:20   -98.943466c  -1.12  -2.09
iter:   7 21:43:20   -98.941206c  -1.87  -2.33
iter:   8 21:43:21   -98.939928c  -2.22  -2.49
iter:   9 21:43:21   -98.939605c  -2.50  -2.89
iter:  10 21:43:22   -98.939597c  -3.12  -2.95
iter:  11 21:43:22   -98.939606c  -3.43  -3.29
iter:  12 21:43:23   -98.939644c  -3.84  -3.53
iter:  13 21:43:23   -98.939818c  -4.23  -3.86
iter:  14 21:43:24   -98.939798c  -4.56  -4.16c
iter:  15 21:43:24   -98.939800c  -4.87  -4.34c
iter:  16 21:43:24   -98.939776c  -5.24  -4.61c
iter:  17 21:43:25   -98.939689c  -5.59  -4.77c
iter:  18 21:43:25   -98.939567c  -5.94  -5.00c
iter:  19 21:43:25   -98.939553c  -6.21  -5.28c
iter:  20 21:43:25   -98.939680c  -6.47  -5.74c
iter:  21 21:43:26   -98.939694c  -6.75  -5.77c
iter:  22 21:43:26   -98.939669c  -7.02  -5.72c
iter:  23 21:43:26   -98.939700c  -7.36  -5.51c
iter:  24 21:43:27   -98.939706c  -7.60c -5.56c

Converged after 24 iterations.

Dipole moment: (-1.479993, -1.068329, -1.772411) |e|*Ang

Energy contributions relative to reference atoms: (reference = -11827.202330)

Kinetic:        +99.673748
Potential:     -111.506536
External:        +0.017724
XC:             -90.362992
Entropy (-ST):   +0.000000
Local:           +3.051415
Interactions  
 surf:           +0.186935
--------------------------
Free energy:    -98.939706
Extrapolated:   -98.939706

Solvation cavity surface area: 162.77308
Solvation cavity volume: 166.82481
 Band  Eigenvalues  Occupancy
    0    -26.21873    2.00000
    1    -25.53742    2.00000
    2    -24.86215    2.00000
    3    -22.97431    2.00000
    4    -19.79138    2.00000
    5    -17.98197    2.00000
    6    -15.73532    2.00000
    7    -14.99400    2.00000
    8    -14.48808    2.00000
    9    -13.25910    2.00000
   10    -12.72261    2.00000
   11    -11.84129    2.00000
   12    -11.24790    2.00000
   13    -10.79332    2.00000
   14    -10.33066    2.00000
   15     -9.63996    2.00000
   16     -9.55413    2.00000
   17     -9.21618    2.00000
   18     -8.81263    2.00000
   19     -8.51506    2.00000
   20     -7.02762    2.00000
   21     -5.68336    2.00000
   22     -5.56596    2.00000
   23     -5.01087    2.00000
   24     -1.45706    0.00000
   25     -0.48527    0.00000
   26     -0.39676    0.00000
   27     -0.02381    0.00000
   28      0.27067    0.00000
   29      0.54657    0.00000
   30      0.64854    0.00000
   31      1.11488    0.00000
   32      1.22626    0.00000

Fermi level: -3.23396

Gap: 3.554 eV
Transition (v -> c):
  (s=0, k=0, n=23, [0.00, 0.00, 0.00]) -> (s=0, k=0, n=24, [0.00, 0.00, 0.00])
Input parameters:
  external: None

Initialize ...

species:
  N:
    name: Nitrogen
    id: f7500608b86eaa90eef8b1d9a670dc53
    Z: 7.0
    valence: 5
    core: 2
    charge: 0.0
    file: /home/fr/fr_fr/fr_ez1021/source/gpaw-setups/gpaw-setups-0.9.20000/N.PBE.gz
    compensation charges: {type: gauss,
                           rc: 0.18,
                           lmax: 2}
    cutoffs: {filter: 1.11,
              core: 0.96}
    valence states:
      #              energy  rcut
      - 2s(2.00)   -18.583   0.603
      - 2p(3.00)    -7.089   0.529
      -  s           8.629   0.603
      -  p          20.123   0.529
      -  d           0.000   0.577
  
    # Using partial waves for N as LCAO basis

  C:
    name: Carbon
    id: 4aa54d4b901d75f77cc0ea3eec22967b
    Z: 6.0
    valence: 4
    core: 2
    charge: 0.0
    file: /home/fr/fr_fr/fr_ez1021/source/gpaw-setups/gpaw-setups-0.9.20000/C.PBE.gz
    compensation charges: {type: gauss,
                           rc: 0.20,
                           lmax: 2}
    cutoffs: {filter: 1.14,
              core: 1.14}
    valence states:
      #              energy  rcut
      - 2s(2.00)   -13.751   0.635
      - 2p(2.00)    -5.284   0.635
      -  s          13.461   0.635
      -  p          21.927   0.635
      -  d           0.000   0.635
  
    # Using partial waves for C as LCAO basis

  O:
    name: Oxygen
    id: 32ecd46bf208036f09c70b0ec9a88b78
    Z: 8.0
    valence: 6
    core: 2
    charge: 0.0
    file: /home/fr/fr_fr/fr_ez1021/source/gpaw-setups/gpaw-setups-0.9.20000/O.PBE.gz
    compensation charges: {type: gauss,
                           rc: 0.21,
                           lmax: 2}
    cutoffs: {filter: 1.17,
              core: 0.83}
    valence states:
      #              energy  rcut
      - 2s(2.00)   -23.961   0.688
      - 2p(4.00)    -9.029   0.598
      -  s           3.251   0.688
      -  p          18.182   0.598
      -  d           0.000   0.619
  
    # Using partial waves for O as LCAO basis

  H:
    name: Hydrogen
    id: d65de229564ff8ea4db303e23b6d1ecf
    Z: 1.0
    valence: 1
    core: 0
    charge: 0.0
    file: /home/fr/fr_fr/fr_ez1021/source/gpaw-setups/gpaw-setups-0.9.20000/H.PBE.gz
    compensation charges: {type: gauss,
                           rc: 0.15,
                           lmax: 2}
    cutoffs: {filter: 0.85,
              core: 0.53}
    valence states:
      #              energy  rcut
      - 1s(1.00)    -6.494   0.476
      -  s          20.717   0.476
      -  p           0.000   0.476
  
    # Using partial waves for H as LCAO basis

Reference energy: -11827.202330  # eV

Spin-paired calculation

Convergence criteria:
 Maximum [total energy] change in last 3 cyles: 0.0005 eV / valence electron
 Maximum integral of absolute [dens]ity change: 0.0001 electrons / valence electron
 Maximum integral of absolute [eigenst]ate change: 4e-08 eV^2 / valence electron
 Maximum number of scf [iter]ations: 333
 (Square brackets indicate name in SCF output, whereas a 'c' in
 the SCF output indicates the quantity has converged.)

Symmetries present (total): 1

  ( 1  0  0)
  ( 0  1  0)
  ( 0  0  1)

1 k-point (Gamma)
1 k-point in the irreducible part of the Brillouin zone
       k-points in crystal coordinates                weights
   0:     0.00000000    0.00000000    0.00000000          1/1

Wave functions: Uniform real-space grid
  Kinetic energy operator: 6*3+1=19 point O(h^6) finite-difference Laplacian
  ScaLapack parameters: grid=1x1, blocksize=None
  Wavefunction extrapolation:
    Improved wavefunction reuse through dual PAW basis 

Occupation numbers: # Zero width 

Eigensolver
   Davidson(niter=2) 

Densities:
  Coarse grid: 68*60*64 grid
  Fine grid: 136*120*128 grid
  Total Charge: 0.000000 

Density mixing:
  Method: separate
  Backend: pulay
  Linear mixing parameter: 0.25
  old densities: 3
  Damping of long wavelength oscillations: 1  # (no daming) 

Hamiltonian:
  XC and Coulomb potentials evaluated on a 136*120*128 grid
  Using the PBE Exchange-Correlation functional
  Interpolation: tri-quintic (5. degree polynomial)
  Poisson solver: Jacobi weighted FD solver with dielectric and 4 multi-grid levels
    Coarsest grid: 17 x 15 x 16 points
    Stencil: Weighted Finite Difference Operator
      6*3+1=19 point O(h^6) finite-difference Laplacian
      Finite-difference x-derivative with O(h^6) error (6 points)
      Finite-difference y-derivative with O(h^6) error (6 points)
      Finite-difference z-derivative with O(h^6) error (6 points)
    Max iterations: 1000
    Tolerance: 2.000000e-10

  Solvation:
    Cavity:  EffectivePotentialCavity
      Surface Calculator: GradientSurface with 3 nn
      Volume Calculator: KB51Volume
        compressibility: 72.57860092224
        temperature:     298.15
      EffectivePotentialCavity
        Potential: Power12Potential
          u0: 0.18eV
          pbc_cutoff: 1e-06
          tiny: 1e-10
        temperature: 298.15K    Dielectric:
      Type: LinearDielectric
      Solvent dielectric constant: 1.77    Interaction: SurfaceInteraction
      subscript: surf
      Surface_tension: 0.0011484376791625194 eV/(Angstrom^2)
XC parameters: PBE with 2 nearest neighbor stencil

Memory estimate:
  Process memory now: 259.54 MiB
  Calculator: 41.62 MiB
    Density: 4.15 MiB
      Arrays: 3.03 MiB
      Localized functions: 0.46 MiB
      Mixer: 0.66 MiB
    Hamiltonian: 29.55 MiB
      Arrays: 1.98 MiB
      XC: 0.00 MiB
      Poisson: 2.27 MiB
      vbar: 0.04 MiB
      Solvation: 25.27 MiB
    Wavefunctions: 7.92 MiB
      Arrays psit_nG: 3.62 MiB
      Eigensolver: 4.25 MiB
      Projections: 0.00 MiB
      Projectors: 0.05 MiB

Total number of cores used: 16
Domain decomposition: 4 x 2 x 2

Number of atoms: 17
Number of atomic orbitals: 41
Number of bands in calculation: 33
Number of valence electrons: 48
Bands to converge: occupied

... initialized

Initializing position-dependent things.

Solvation position-dependent initialization:
  Atomic radii for Power12Potential:
    Type    Radius   No. of atoms
       H     1.090     9
       O     1.520     3
       N     1.550     1
       C     1.700     4

Density initialized from atomic densities
Creating initial wave functions:
  33 bands from LCAO basis set

        .--------------------------------.  
       /|                                |  
      / |                                |  
     /  |                                |  
    /   |                                |  
   /    |                                |  
  /     |                                |  
 *      |                                |  
 |      |                O               |  
 |      |           H    C               |  
 |      |            H      O            |  
 |      |      H    C O                  |  
 |      |      HC   H     H              |  
 |      |        H    HH                 |  
 |      |                                |  
 |      |                                |  
 |      .--------------------------------.  
 |     /                                /   
 |    /                                /    
 |   /                                /     
 |  /                                /      
 | /                                /       
 |/                                /        
 *--------------------------------*         

Positions:
   0 N      7.555716    6.827788    5.070431    ( 0.0000,  0.0000,  0.0000)
   1 C      7.034114    7.148351    6.438337    ( 0.0000,  0.0000,  0.0000)
   2 C      8.215756    7.724285    7.278717    ( 0.0000,  0.0000,  0.0000)
   3 O      9.308713    7.906675    6.663352    ( 0.0000,  0.0000,  0.0000)
   4 H      8.448236    7.352817    4.987324    ( 0.0000,  0.0000,  0.0000)
   5 H      6.907899    7.081240    4.318827    ( 0.0000,  0.0000,  0.0000)
   6 H      6.295620    7.952729    6.331011    ( 0.0000,  0.0000,  0.0000)
   7 C      6.351724    5.928311    7.067990    ( 0.0000,  0.0000,  0.0000)
   8 O      7.303116    4.849818    6.960271    ( 0.0000,  0.0000,  0.0000)
   9 C      5.013950    5.568868    6.432868    ( 0.0000,  0.0000,  0.0000)
  10 H      6.198943    6.179165    8.130025    ( 0.0000,  0.0000,  0.0000)
  11 H      6.838326    4.011825    7.138635    ( 0.0000,  0.0000,  0.0000)
  12 H      4.601415    4.674674    6.923259    ( 0.0000,  0.0000,  0.0000)
  13 H      5.108511    5.367955    5.355154    ( 0.0000,  0.0000,  0.0000)
  14 H      4.291287    6.385158    6.572758    ( 0.0000,  0.0000,  0.0000)
  15 O      7.959726    7.988175    8.481173    ( 0.0000,  0.0000,  0.0000)
  16 H      7.782390    5.825601    4.993259    ( 0.0000,  0.0000,  0.0000)

Unit cell:
           periodic     x           y           z      points  spacing
  1. axis:    no    13.600000    0.000000    0.000000    68     0.2000
  2. axis:    no     0.000000   12.000000    0.000000    60     0.2000
  3. axis:    no     0.000000    0.000000   12.800000    64     0.2000

  Lengths:  13.600000  12.000000  12.800000
  Angles:   90.000000  90.000000  90.000000

Effective grid spacing dv^(1/3) = 0.2000

     iter     time        total  log10-change:
                         energy   eigst   dens
iter:   1 21:43:29  -107.276423
iter:   2 21:43:30  -100.907721   +0.61  -0.72
iter:   3 21:43:31   -99.181744   +0.59  -0.92
iter:   4 21:43:32   -98.970751   -0.20  -1.17
iter:   5 21:43:33   -98.964603   -0.65  -1.54
iter:   6 21:43:34   -98.961243c  -1.12  -2.09
iter:   7 21:43:34   -98.958982c  -1.87  -2.33
iter:   8 21:43:35   -98.957698c  -2.22  -2.49
iter:   9 21:43:35   -98.957379c  -2.50  -2.88
iter:  10 21:43:36   -98.957368c  -3.12  -2.95
iter:  11 21:43:36   -98.957377c  -3.43  -3.29
iter:  12 21:43:36   -98.957417c  -3.83  -3.53
iter:  13 21:43:37   -98.957589c  -4.23  -3.86
iter:  14 21:43:37   -98.957569c  -4.56  -4.16c
iter:  15 21:43:38   -98.957573c  -4.87  -4.34c
iter:  16 21:43:38   -98.957548c  -5.24  -4.60c
iter:  17 21:43:38   -98.957461c  -5.59  -4.76c
iter:  18 21:43:39   -98.957340c  -5.94  -5.01c
iter:  19 21:43:39   -98.957326c  -6.21  -5.28c
iter:  20 21:43:39   -98.957453c  -6.47  -5.74c
iter:  21 21:43:39   -98.957466c  -6.76  -5.77c
iter:  22 21:43:40   -98.957443c  -7.02  -5.72c
iter:  23 21:43:40   -98.957467c  -7.36  -5.51c
iter:  24 21:43:40   -98.957481c  -7.61c -5.54c

Converged after 24 iterations.

Dipole moment: (-1.479993, -1.068947, -1.782076) |e|*Ang

Energy contributions relative to reference atoms: (reference = -11827.202330)

Kinetic:        +99.666734
Potential:     -111.497192
External:        +0.000000
XC:             -90.365434
Entropy (-ST):   +0.000000
Local:           +3.051477
Interactions  
 surf:           +0.186935
--------------------------
Free energy:    -98.957481
Extrapolated:   -98.957481

Solvation cavity surface area: 162.77308
Solvation cavity volume: 166.82481
 Band  Eigenvalues  Occupancy
    0    -26.22173    2.00000
    1    -25.53912    2.00000
    2    -24.86319    2.00000
    3    -22.98148    2.00000
    4    -19.79334    2.00000
    5    -17.98254    2.00000
    6    -15.73628    2.00000
    7    -14.98804    2.00000
    8    -14.48484    2.00000
    9    -13.26001    2.00000
   10    -12.72505    2.00000
   11    -11.84273    2.00000
   12    -11.25099    2.00000
   13    -10.79598    2.00000
   14    -10.33416    2.00000
   15     -9.64211    2.00000
   16     -9.55842    2.00000
   17     -9.22394    2.00000
   18     -8.81775    2.00000
   19     -8.51958    2.00000
   20     -7.03232    2.00000
   21     -5.69101    2.00000
   22     -5.57093    2.00000
   23     -5.02021    2.00000
   24     -1.44330    0.00000
   25     -0.48553    0.00000
   26     -0.39095    0.00000
   27     -0.01390    0.00000
   28      0.26642    0.00000
   29      0.54919    0.00000
   30      0.64684    0.00000
   31      1.11748    0.00000
   32      1.21463    0.00000

Fermi level: -3.23176

Gap: 3.577 eV
Transition (v -> c):
  (s=0, k=0, n=23, [0.00, 0.00, 0.00]) -> (s=0, k=0, n=24, [0.00, 0.00, 0.00])
Input parameters:
  external: {direction: [1. 0. 0.],
             name: ConstantElectricField,
             strength: 0.01169603524229075}

Initialize ...

species:
  N:
    name: Nitrogen
    id: f7500608b86eaa90eef8b1d9a670dc53
    Z: 7.0
    valence: 5
    core: 2
    charge: 0.0
    file: /home/fr/fr_fr/fr_ez1021/source/gpaw-setups/gpaw-setups-0.9.20000/N.PBE.gz
    compensation charges: {type: gauss,
                           rc: 0.18,
                           lmax: 2}
    cutoffs: {filter: 1.11,
              core: 0.96}
    valence states:
      #              energy  rcut
      - 2s(2.00)   -18.583   0.603
      - 2p(3.00)    -7.089   0.529
      -  s           8.629   0.603
      -  p          20.123   0.529
      -  d           0.000   0.577
  
    # Using partial waves for N as LCAO basis

  C:
    name: Carbon
    id: 4aa54d4b901d75f77cc0ea3eec22967b
    Z: 6.0
    valence: 4
    core: 2
    charge: 0.0
    file: /home/fr/fr_fr/fr_ez1021/source/gpaw-setups/gpaw-setups-0.9.20000/C.PBE.gz
    compensation charges: {type: gauss,
                           rc: 0.20,
                           lmax: 2}
    cutoffs: {filter: 1.14,
              core: 1.14}
    valence states:
      #              energy  rcut
      - 2s(2.00)   -13.751   0.635
      - 2p(2.00)    -5.284   0.635
      -  s          13.461   0.635
      -  p          21.927   0.635
      -  d           0.000   0.635
  
    # Using partial waves for C as LCAO basis

  O:
    name: Oxygen
    id: 32ecd46bf208036f09c70b0ec9a88b78
    Z: 8.0
    valence: 6
    core: 2
    charge: 0.0
    file: /home/fr/fr_fr/fr_ez1021/source/gpaw-setups/gpaw-setups-0.9.20000/O.PBE.gz
    compensation charges: {type: gauss,
                           rc: 0.21,
                           lmax: 2}
    cutoffs: {filter: 1.17,
              core: 0.83}
    valence states:
      #              energy  rcut
      - 2s(2.00)   -23.961   0.688
      - 2p(4.00)    -9.029   0.598
      -  s           3.251   0.688
      -  p          18.182   0.598
      -  d           0.000   0.619
  
    # Using partial waves for O as LCAO basis

  H:
    name: Hydrogen
    id: d65de229564ff8ea4db303e23b6d1ecf
    Z: 1.0
    valence: 1
    core: 0
    charge: 0.0
    file: /home/fr/fr_fr/fr_ez1021/source/gpaw-setups/gpaw-setups-0.9.20000/H.PBE.gz
    compensation charges: {type: gauss,
                           rc: 0.15,
                           lmax: 2}
    cutoffs: {filter: 0.85,
              core: 0.53}
    valence states:
      #              energy  rcut
      - 1s(1.00)    -6.494   0.476
      -  s          20.717   0.476
      -  p           0.000   0.476
  
    # Using partial waves for H as LCAO basis

Reference energy: -11827.202330  # eV

Spin-paired calculation

Convergence criteria:
 Maximum [total energy] change in last 3 cyles: 0.0005 eV / valence electron
 Maximum integral of absolute [dens]ity change: 0.0001 electrons / valence electron
 Maximum integral of absolute [eigenst]ate change: 4e-08 eV^2 / valence electron
 Maximum number of scf [iter]ations: 333
 (Square brackets indicate name in SCF output, whereas a 'c' in
 the SCF output indicates the quantity has converged.)

Symmetries present (total): 1

  ( 1  0  0)
  ( 0  1  0)
  ( 0  0  1)

1 k-point (Gamma)
1 k-point in the irreducible part of the Brillouin zone
       k-points in crystal coordinates                weights
   0:     0.00000000    0.00000000    0.00000000          1/1

Wave functions: Uniform real-space grid
  Kinetic energy operator: 6*3+1=19 point O(h^6) finite-difference Laplacian
  ScaLapack parameters: grid=1x1, blocksize=None
  Wavefunction extrapolation:
    Improved wavefunction reuse through dual PAW basis 

Occupation numbers: # Zero width 

Eigensolver
   Davidson(niter=2) 

Densities:
  Coarse grid: 68*60*64 grid
  Fine grid: 136*120*128 grid
  Total Charge: 0.000000 

Density mixing:
  Method: separate
  Backend: pulay
  Linear mixing parameter: 0.25
  old densities: 3
  Damping of long wavelength oscillations: 1  # (no daming) 

Hamiltonian:
  XC and Coulomb potentials evaluated on a 136*120*128 grid
  Using the PBE Exchange-Correlation functional
  External potential:
    Constant electric field: (0.012, 0.000, 0.000) V/Ang
  Interpolation: tri-quintic (5. degree polynomial)
  Poisson solver: Jacobi weighted FD solver with dielectric and 4 multi-grid levels
    Coarsest grid: 17 x 15 x 16 points
    Stencil: Weighted Finite Difference Operator
      6*3+1=19 point O(h^6) finite-difference Laplacian
      Finite-difference x-derivative with O(h^6) error (6 points)
      Finite-difference y-derivative with O(h^6) error (6 points)
      Finite-difference z-derivative with O(h^6) error (6 points)
    Max iterations: 1000
    Tolerance: 2.000000e-10

  Solvation:
    Cavity:  EffectivePotentialCavity
      Surface Calculator: GradientSurface with 3 nn
      Volume Calculator: KB51Volume
        compressibility: 72.57860092224
        temperature:     298.15
      EffectivePotentialCavity
        Potential: Power12Potential
          u0: 0.18eV
          pbc_cutoff: 1e-06
          tiny: 1e-10
        temperature: 298.15K    Dielectric:
      Type: LinearDielectric
      Solvent dielectric constant: 1.77    Interaction: SurfaceInteraction
      subscript: surf
      Surface_tension: 0.0011484376791625194 eV/(Angstrom^2)
XC parameters: PBE with 2 nearest neighbor stencil

Memory estimate:
  Process memory now: 260.34 MiB
  Calculator: 41.62 MiB
    Density: 4.15 MiB
      Arrays: 3.03 MiB
      Localized functions: 0.46 MiB
      Mixer: 0.66 MiB
    Hamiltonian: 29.55 MiB
      Arrays: 1.98 MiB
      XC: 0.00 MiB
      Poisson: 2.27 MiB
      vbar: 0.04 MiB
      Solvation: 25.27 MiB
    Wavefunctions: 7.92 MiB
      Arrays psit_nG: 3.62 MiB
      Eigensolver: 4.25 MiB
      Projections: 0.00 MiB
      Projectors: 0.05 MiB

Total number of cores used: 16
Domain decomposition: 4 x 2 x 2

Number of atoms: 17
Number of atomic orbitals: 41
Number of bands in calculation: 33
Number of valence electrons: 48
Bands to converge: occupied

... initialized

Initializing position-dependent things.

Solvation position-dependent initialization:
  Atomic radii for Power12Potential:
    Type    Radius   No. of atoms
       H     1.090     9
       O     1.520     3
       N     1.550     1
       C     1.700     4

Density initialized from atomic densities
Creating initial wave functions:
  33 bands from LCAO basis set

        .--------------------------------.  
       /|                                |  
      / |                                |  
     /  |                                |  
    /   |                                |  
   /    |                                |  
  /     |                                |  
 *      |                                |  
 |      |                O               |  
 |      |           H    C               |  
 |      |            H      O            |  
 |      |      H    C O                  |  
 |      |      HC   H     H              |  
 |      |        H    HH                 |  
 |      |                                |  
 |      |                                |  
 |      .--------------------------------.  
 |     /                                /   
 |    /                                /    
 |   /                                /     
 |  /                                /      
 | /                                /       
 |/                                /        
 *--------------------------------*         

Positions:
   0 N      7.555716    6.827788    5.070431    ( 0.0000,  0.0000,  0.0000)
   1 C      7.034114    7.148351    6.438337    ( 0.0000,  0.0000,  0.0000)
   2 C      8.215756    7.724285    7.278717    ( 0.0000,  0.0000,  0.0000)
   3 O      9.308713    7.906675    6.663352    ( 0.0000,  0.0000,  0.0000)
   4 H      8.448236    7.352817    4.987324    ( 0.0000,  0.0000,  0.0000)
   5 H      6.907899    7.081240    4.318827    ( 0.0000,  0.0000,  0.0000)
   6 H      6.295620    7.952729    6.331011    ( 0.0000,  0.0000,  0.0000)
   7 C      6.351724    5.928311    7.067990    ( 0.0000,  0.0000,  0.0000)
   8 O      7.303116    4.849818    6.960271    ( 0.0000,  0.0000,  0.0000)
   9 C      5.013950    5.568868    6.432868    ( 0.0000,  0.0000,  0.0000)
  10 H      6.198943    6.179165    8.130025    ( 0.0000,  0.0000,  0.0000)
  11 H      6.838326    4.011825    7.138635    ( 0.0000,  0.0000,  0.0000)
  12 H      4.601415    4.674674    6.923259    ( 0.0000,  0.0000,  0.0000)
  13 H      5.108511    5.367955    5.355154    ( 0.0000,  0.0000,  0.0000)
  14 H      4.291287    6.385158    6.572758    ( 0.0000,  0.0000,  0.0000)
  15 O      7.959726    7.988175    8.481173    ( 0.0000,  0.0000,  0.0000)
  16 H      7.782390    5.825601    4.993259    ( 0.0000,  0.0000,  0.0000)

Unit cell:
           periodic     x           y           z      points  spacing
  1. axis:    no    13.600000    0.000000    0.000000    68     0.2000
  2. axis:    no     0.000000   12.000000    0.000000    60     0.2000
  3. axis:    no     0.000000    0.000000   12.800000    64     0.2000

  Lengths:  13.600000  12.000000  12.800000
  Angles:   90.000000  90.000000  90.000000

Effective grid spacing dv^(1/3) = 0.2000

     iter     time        total  log10-change:
                         energy   eigst   dens
iter:   1 21:43:43  -107.253951
iter:   2 21:43:44  -100.889854   +0.61  -0.72
iter:   3 21:43:45   -99.164252   +0.58  -0.92
iter:   4 21:43:46   -98.953379   -0.20  -1.17
iter:   5 21:43:47   -98.947299   -0.65  -1.54
iter:   6 21:43:47   -98.943980c  -1.12  -2.09
iter:   7 21:43:48   -98.941731c  -1.86  -2.33
iter:   8 21:43:48   -98.940450c  -2.22  -2.49
iter:   9 21:43:49   -98.940132c  -2.49  -2.88
iter:  10 21:43:49   -98.940122c  -3.12  -2.95
iter:  11 21:43:50   -98.940133c  -3.43  -3.29
iter:  12 21:43:50   -98.940174c  -3.83  -3.53
iter:  13 21:43:50   -98.940345c  -4.23  -3.86
iter:  14 21:43:51   -98.940325c  -4.56  -4.16c
iter:  15 21:43:51   -98.940330c  -4.87  -4.34c
iter:  16 21:43:52   -98.940303c  -5.23  -4.60c
iter:  17 21:43:52   -98.940216c  -5.59  -4.76c
iter:  18 21:43:52   -98.940095c  -5.94  -5.01c
iter:  19 21:43:52   -98.940082c  -6.21  -5.28c
iter:  20 21:43:53   -98.940210c  -6.46  -5.74c
iter:  21 21:43:53   -98.940222c  -6.75  -5.76c
iter:  22 21:43:53   -98.940201c  -7.02  -5.71c
iter:  23 21:43:54   -98.940218c  -7.36  -5.51c
iter:  24 21:43:54   -98.940242c  -7.61c -5.52c

Converged after 24 iterations.

Dipole moment: (-1.468765, -1.067708, -1.782078) |e|*Ang

Energy contributions relative to reference atoms: (reference = -11827.202330)

Kinetic:        +99.670669
Potential:     -111.504003
External:        +0.017179
XC:             -90.362370
Entropy (-ST):   +0.000000
Local:           +3.051349
Interactions  
 surf:           +0.186935
--------------------------
Free energy:    -98.940242
Extrapolated:   -98.940242

Solvation cavity surface area: 162.77308
Solvation cavity volume: 166.82481
 Band  Eigenvalues  Occupancy
    0    -26.21935    2.00000
    1    -25.52968    2.00000
    2    -24.85218    2.00000
    3    -22.96672    2.00000
    4    -19.79646    2.00000
    5    -17.98698    2.00000
    6    -15.73614    2.00000
    7    -14.98217    2.00000
    8    -14.47998    2.00000
    9    -13.25623    2.00000
   10    -12.72239    2.00000
   11    -11.84275    2.00000
   12    -11.25689    2.00000
   13    -10.79436    2.00000
   14    -10.33143    2.00000
   15     -9.64934    2.00000
   16     -9.55702    2.00000
   17     -9.21147    2.00000
   18     -8.81157    2.00000
   19     -8.51539    2.00000
   20     -7.03210    2.00000
   21     -5.67525    2.00000
   22     -5.55506    2.00000
   23     -5.00693    2.00000
   24     -1.44453    0.00000
   25     -0.49046    0.00000
   26     -0.39341    0.00000
   27     -0.02551    0.00000
   28      0.26903    0.00000
   29      0.55069    0.00000
   30      0.63763    0.00000
   31      1.10320    0.00000
   32      1.17655    0.00000

Fermi level: -3.22573

Gap: 3.562 eV
Transition (v -> c):
  (s=0, k=0, n=23, [0.00, 0.00, 0.00]) -> (s=0, k=0, n=24, [0.00, 0.00, 0.00])
Input parameters:
  external: {direction: [0. 1. 0.],
             name: ConstantElectricField,
             strength: 0.01169603524229075}

Initialize ...

species:
  N:
    name: Nitrogen
    id: f7500608b86eaa90eef8b1d9a670dc53
    Z: 7.0
    valence: 5
    core: 2
    charge: 0.0
    file: /home/fr/fr_fr/fr_ez1021/source/gpaw-setups/gpaw-setups-0.9.20000/N.PBE.gz
    compensation charges: {type: gauss,
                           rc: 0.18,
                           lmax: 2}
    cutoffs: {filter: 1.11,
              core: 0.96}
    valence states:
      #              energy  rcut
      - 2s(2.00)   -18.583   0.603
      - 2p(3.00)    -7.089   0.529
      -  s           8.629   0.603
      -  p          20.123   0.529
      -  d           0.000   0.577
  
    # Using partial waves for N as LCAO basis

  C:
    name: Carbon
    id: 4aa54d4b901d75f77cc0ea3eec22967b
    Z: 6.0
    valence: 4
    core: 2
    charge: 0.0
    file: /home/fr/fr_fr/fr_ez1021/source/gpaw-setups/gpaw-setups-0.9.20000/C.PBE.gz
    compensation charges: {type: gauss,
                           rc: 0.20,
                           lmax: 2}
    cutoffs: {filter: 1.14,
              core: 1.14}
    valence states:
      #              energy  rcut
      - 2s(2.00)   -13.751   0.635
      - 2p(2.00)    -5.284   0.635
      -  s          13.461   0.635
      -  p          21.927   0.635
      -  d           0.000   0.635
  
    # Using partial waves for C as LCAO basis

  O:
    name: Oxygen
    id: 32ecd46bf208036f09c70b0ec9a88b78
    Z: 8.0
    valence: 6
    core: 2
    charge: 0.0
    file: /home/fr/fr_fr/fr_ez1021/source/gpaw-setups/gpaw-setups-0.9.20000/O.PBE.gz
    compensation charges: {type: gauss,
                           rc: 0.21,
                           lmax: 2}
    cutoffs: {filter: 1.17,
              core: 0.83}
    valence states:
      #              energy  rcut
      - 2s(2.00)   -23.961   0.688
      - 2p(4.00)    -9.029   0.598
      -  s           3.251   0.688
      -  p          18.182   0.598
      -  d           0.000   0.619
  
    # Using partial waves for O as LCAO basis

  H:
    name: Hydrogen
    id: d65de229564ff8ea4db303e23b6d1ecf
    Z: 1.0
    valence: 1
    core: 0
    charge: 0.0
    file: /home/fr/fr_fr/fr_ez1021/source/gpaw-setups/gpaw-setups-0.9.20000/H.PBE.gz
    compensation charges: {type: gauss,
                           rc: 0.15,
                           lmax: 2}
    cutoffs: {filter: 0.85,
              core: 0.53}
    valence states:
      #              energy  rcut
      - 1s(1.00)    -6.494   0.476
      -  s          20.717   0.476
      -  p           0.000   0.476
  
    # Using partial waves for H as LCAO basis

Reference energy: -11827.202330  # eV

Spin-paired calculation

Convergence criteria:
 Maximum [total energy] change in last 3 cyles: 0.0005 eV / valence electron
 Maximum integral of absolute [dens]ity change: 0.0001 electrons / valence electron
 Maximum integral of absolute [eigenst]ate change: 4e-08 eV^2 / valence electron
 Maximum number of scf [iter]ations: 333
 (Square brackets indicate name in SCF output, whereas a 'c' in
 the SCF output indicates the quantity has converged.)

Symmetries present (total): 1

  ( 1  0  0)
  ( 0  1  0)
  ( 0  0  1)

1 k-point (Gamma)
1 k-point in the irreducible part of the Brillouin zone
       k-points in crystal coordinates                weights
   0:     0.00000000    0.00000000    0.00000000          1/1

Wave functions: Uniform real-space grid
  Kinetic energy operator: 6*3+1=19 point O(h^6) finite-difference Laplacian
  ScaLapack parameters: grid=1x1, blocksize=None
  Wavefunction extrapolation:
    Improved wavefunction reuse through dual PAW basis 

Occupation numbers: # Zero width 

Eigensolver
   Davidson(niter=2) 

Densities:
  Coarse grid: 68*60*64 grid
  Fine grid: 136*120*128 grid
  Total Charge: 0.000000 

Density mixing:
  Method: separate
  Backend: pulay
  Linear mixing parameter: 0.25
  old densities: 3
  Damping of long wavelength oscillations: 1  # (no daming) 

Hamiltonian:
  XC and Coulomb potentials evaluated on a 136*120*128 grid
  Using the PBE Exchange-Correlation functional
  External potential:
    Constant electric field: (0.000, 0.012, 0.000) V/Ang
  Interpolation: tri-quintic (5. degree polynomial)
  Poisson solver: Jacobi weighted FD solver with dielectric and 4 multi-grid levels
    Coarsest grid: 17 x 15 x 16 points
    Stencil: Weighted Finite Difference Operator
      6*3+1=19 point O(h^6) finite-difference Laplacian
      Finite-difference x-derivative with O(h^6) error (6 points)
      Finite-difference y-derivative with O(h^6) error (6 points)
      Finite-difference z-derivative with O(h^6) error (6 points)
    Max iterations: 1000
    Tolerance: 2.000000e-10

  Solvation:
    Cavity:  EffectivePotentialCavity
      Surface Calculator: GradientSurface with 3 nn
      Volume Calculator: KB51Volume
        compressibility: 72.57860092224
        temperature:     298.15
      EffectivePotentialCavity
        Potential: Power12Potential
          u0: 0.18eV
          pbc_cutoff: 1e-06
          tiny: 1e-10
        temperature: 298.15K    Dielectric:
      Type: LinearDielectric
      Solvent dielectric constant: 1.77    Interaction: SurfaceInteraction
      subscript: surf
      Surface_tension: 0.0011484376791625194 eV/(Angstrom^2)
XC parameters: PBE with 2 nearest neighbor stencil

Memory estimate:
  Process memory now: 261.58 MiB
  Calculator: 41.62 MiB
    Density: 4.15 MiB
      Arrays: 3.03 MiB
      Localized functions: 0.46 MiB
      Mixer: 0.66 MiB
    Hamiltonian: 29.55 MiB
      Arrays: 1.98 MiB
      XC: 0.00 MiB
      Poisson: 2.27 MiB
      vbar: 0.04 MiB
      Solvation: 25.27 MiB
    Wavefunctions: 7.92 MiB
[...]
   7 C      6.351724    5.928311    7.067990    ( 0.0000,  0.0000,  0.0000)
   8 O      7.303116    4.849818    6.960271    ( 0.0000,  0.0000,  0.0000)
   9 C      5.013950    5.568868    6.432868    ( 0.0000,  0.0000,  0.0000)
  10 H      6.198943    6.179165    8.130025    ( 0.0000,  0.0000,  0.0000)
  11 H      6.838326    4.011825    7.138635    ( 0.0000,  0.0000,  0.0000)
  12 H      4.601415    4.674674    6.923259    ( 0.0000,  0.0000,  0.0000)
  13 H      5.108511    5.367955    5.355154    ( 0.0000,  0.0000,  0.0000)
  14 H      4.291287    6.385158    6.572758    ( 0.0000,  0.0000,  0.0000)
  15 O      7.959726    7.988175    8.481173    ( 0.0000,  0.0000,  0.0000)
  16 H      7.782390    5.825601    4.993259    ( 0.0000,  0.0000,  0.0000)

Unit cell:
           periodic     x           y           z      points  spacing
  1. axis:    no    13.600000    0.000000    0.000000    68     0.2000
  2. axis:    no     0.000000   12.000000    0.000000    60     0.2000
  3. axis:    no     0.000000    0.000000   12.800000    64     0.2000

  Lengths:  13.600000  12.000000  12.800000
  Angles:   90.000000  90.000000  90.000000

Effective grid spacing dv^(1/3) = 0.2000

     iter     time        total  log10-change:
                         energy   eigst   dens
iter:   1 21:49:25  -107.258104
iter:   2 21:49:27  -100.891679   +0.61  -0.72
iter:   3 21:49:28   -99.166881   +0.59  -0.92
iter:   4 21:49:28   -98.955941   -0.20  -1.17
iter:   5 21:49:29   -98.949837   -0.65  -1.54
iter:   6 21:49:30   -98.946496c  -1.12  -2.09
iter:   7 21:49:31   -98.944237c  -1.87  -2.33
iter:   8 21:49:31   -98.942954c  -2.22  -2.49
iter:   9 21:49:32   -98.942636c  -2.49  -2.88
iter:  10 21:49:32   -98.942626c  -3.12  -2.95
iter:  11 21:49:32   -98.942636c  -3.43  -3.29
iter:  12 21:49:33   -98.942677c  -3.83  -3.53
iter:  13 21:49:33   -98.942849c  -4.23  -3.86
iter:  14 21:49:34   -98.942829c  -4.56  -4.16c
iter:  15 21:49:34   -98.942833c  -4.87  -4.34c
iter:  16 21:49:34   -98.942808c  -5.23  -4.60c
iter:  17 21:49:35   -98.942721c  -5.59  -4.76c
iter:  18 21:49:35   -98.942599c  -5.94  -5.00c
iter:  19 21:49:35   -98.942586c  -6.21  -5.28c
iter:  20 21:49:36   -98.942713c  -6.46  -5.74c
iter:  21 21:49:36   -98.942726c  -6.75  -5.77c
iter:  22 21:49:36   -98.942702c  -7.02  -5.72c
iter:  23 21:49:36   -98.942729c  -7.35  -5.51c
iter:  24 21:49:37   -98.942740c  -7.60c -5.55c

Converged after 24 iterations.

Dipole moment: (-1.478523, -1.057406, -1.781219) |e|*Ang

Energy contributions relative to reference atoms: (reference = -11827.202330)

Kinetic:        +99.675498
Potential:     -111.506859
External:        +0.014660
XC:             -90.364377
Entropy (-ST):   +0.000000
Local:           +3.051404
Interactions  
 surf:           +0.186935
--------------------------
Free energy:    -98.942740
Extrapolated:   -98.942740

Solvation cavity surface area: 162.77308
Solvation cavity volume: 166.82481
 Band  Eigenvalues  Occupancy
    0    -26.22438    2.00000
    1    -25.52717    2.00000
    2    -24.84676    2.00000
    3    -22.96011    2.00000
    4    -19.78997    2.00000
    5    -17.97755    2.00000
    6    -15.73333    2.00000
    7    -14.97606    2.00000
    8    -14.47647    2.00000
    9    -13.25405    2.00000
   10    -12.71818    2.00000
   11    -11.83734    2.00000
   12    -11.25028    2.00000
   13    -10.78657    2.00000
   14    -10.32413    2.00000
   15     -9.64364    2.00000
   16     -9.54871    2.00000
   17     -9.20532    2.00000
   18     -8.80932    2.00000
   19     -8.51189    2.00000
   20     -7.03804    2.00000
   21     -5.66875    2.00000
   22     -5.55031    2.00000
   23     -4.99865    2.00000
   24     -1.43760    0.00000
   25     -0.50006    0.00000
   26     -0.38258    0.00000
   27     -0.01698    0.00000
   28      0.27296    0.00000
   29      0.55937    0.00000
   30      0.65228    0.00000
   31      1.12376    0.00000
   32      1.20808    0.00000

Fermi level: -3.21813

Gap: 3.561 eV
Transition (v -> c):
  (s=0, k=0, n=23, [0.00, 0.00, 0.00]) -> (s=0, k=0, n=24, [0.00, 0.00, 0.00])
Input parameters:
  external: {direction: [0. 0. 1.],
             name: ConstantElectricField,
             strength: 0.013864276623791747}

Initialize ...

species:
  N:
    name: Nitrogen
    id: f7500608b86eaa90eef8b1d9a670dc53
    Z: 7.0
    valence: 5
    core: 2
    charge: 0.0
    file: /home/fr/fr_fr/fr_ez1021/source/gpaw-setups/gpaw-setups-0.9.20000/N.PBE.gz
    compensation charges: {type: gauss,
                           rc: 0.18,
                           lmax: 2}
    cutoffs: {filter: 1.11,
              core: 0.96}
    valence states:
      #              energy  rcut
      - 2s(2.00)   -18.583   0.603
      - 2p(3.00)    -7.089   0.529
      -  s           8.629   0.603
      -  p          20.123   0.529
      -  d           0.000   0.577
  
    # Using partial waves for N as LCAO basis

  C:
    name: Carbon
    id: 4aa54d4b901d75f77cc0ea3eec22967b
    Z: 6.0
    valence: 4
    core: 2
    charge: 0.0
    file: /home/fr/fr_fr/fr_ez1021/source/gpaw-setups/gpaw-setups-0.9.20000/C.PBE.gz
    compensation charges: {type: gauss,
                           rc: 0.20,
                           lmax: 2}
    cutoffs: {filter: 1.14,
              core: 1.14}
    valence states:
      #              energy  rcut
      - 2s(2.00)   -13.751   0.635
      - 2p(2.00)    -5.284   0.635
      -  s          13.461   0.635
      -  p          21.927   0.635
      -  d           0.000   0.635
  
    # Using partial waves for C as LCAO basis

  O:
    name: Oxygen
    id: 32ecd46bf208036f09c70b0ec9a88b78
    Z: 8.0
    valence: 6
    core: 2
    charge: 0.0
    file: /home/fr/fr_fr/fr_ez1021/source/gpaw-setups/gpaw-setups-0.9.20000/O.PBE.gz
    compensation charges: {type: gauss,
                           rc: 0.21,
                           lmax: 2}
    cutoffs: {filter: 1.17,
              core: 0.83}
    valence states:
      #              energy  rcut
      - 2s(2.00)   -23.961   0.688
      - 2p(4.00)    -9.029   0.598
      -  s           3.251   0.688
      -  p          18.182   0.598
      -  d           0.000   0.619
  
    # Using partial waves for O as LCAO basis

  H:
    name: Hydrogen
    id: d65de229564ff8ea4db303e23b6d1ecf
    Z: 1.0
    valence: 1
    core: 0
    charge: 0.0
    file: /home/fr/fr_fr/fr_ez1021/source/gpaw-setups/gpaw-setups-0.9.20000/H.PBE.gz
    compensation charges: {type: gauss,
                           rc: 0.15,
                           lmax: 2}
    cutoffs: {filter: 0.85,
              core: 0.53}
    valence states:
      #              energy  rcut
      - 1s(1.00)    -6.494   0.476
      -  s          20.717   0.476
      -  p           0.000   0.476
  
    # Using partial waves for H as LCAO basis

Reference energy: -11827.202330  # eV

Spin-paired calculation

Convergence criteria:
 Maximum [total energy] change in last 3 cyles: 0.0005 eV / valence electron
 Maximum integral of absolute [dens]ity change: 0.0001 electrons / valence electron
 Maximum integral of absolute [eigenst]ate change: 4e-08 eV^2 / valence electron
 Maximum number of scf [iter]ations: 333
 (Square brackets indicate name in SCF output, whereas a 'c' in
 the SCF output indicates the quantity has converged.)

Symmetries present (total): 1

  ( 1  0  0)
  ( 0  1  0)
  ( 0  0  1)

1 k-point (Gamma)
1 k-point in the irreducible part of the Brillouin zone
       k-points in crystal coordinates                weights
   0:     0.00000000    0.00000000    0.00000000          1/1

Wave functions: Uniform real-space grid
  Kinetic energy operator: 6*3+1=19 point O(h^6) finite-difference Laplacian
  ScaLapack parameters: grid=1x1, blocksize=None
  Wavefunction extrapolation:
    Improved wavefunction reuse through dual PAW basis 

Occupation numbers: # Zero width 

Eigensolver
   Davidson(niter=2) 

Densities:
  Coarse grid: 68*60*64 grid
  Fine grid: 136*120*128 grid
  Total Charge: 0.000000 

Density mixing:
  Method: separate
  Backend: pulay
  Linear mixing parameter: 0.25
  old densities: 3
  Damping of long wavelength oscillations: 1  # (no daming) 

Hamiltonian:
  XC and Coulomb potentials evaluated on a 136*120*128 grid
  Using the PBE Exchange-Correlation functional
  External potential:
    Constant electric field: (0.000, 0.000, 0.014) V/Ang
  Interpolation: tri-quintic (5. degree polynomial)
  Poisson solver: Jacobi weighted FD solver with dielectric and 4 multi-grid levels
    Coarsest grid: 17 x 15 x 16 points
    Stencil: Weighted Finite Difference Operator
      6*3+1=19 point O(h^6) finite-difference Laplacian
      Finite-difference x-derivative with O(h^6) error (6 points)
      Finite-difference y-derivative with O(h^6) error (6 points)
      Finite-difference z-derivative with O(h^6) error (6 points)
    Max iterations: 1000
    Tolerance: 2.000000e-10

  Solvation:
    Cavity:  EffectivePotentialCavity
      Surface Calculator: GradientSurface with 3 nn
      Volume Calculator: KB51Volume
        compressibility: 72.57860092224
        temperature:     298.15
      EffectivePotentialCavity
        Potential: Power12Potential
          u0: 0.18eV
          pbc_cutoff: 1e-06
          tiny: 1e-10
        temperature: 298.15K    Dielectric:
      Type: LinearDielectric
      Solvent dielectric constant: 1.77    Interaction: SurfaceInteraction
      subscript: surf
      Surface_tension: 0.0011484376791625194 eV/(Angstrom^2)
XC parameters: PBE with 2 nearest neighbor stencil

Memory estimate:
  Process memory now: 290.08 MiB
  Calculator: 41.62 MiB
    Density: 4.15 MiB
      Arrays: 3.03 MiB
      Localized functions: 0.46 MiB
      Mixer: 0.66 MiB
    Hamiltonian: 29.55 MiB
      Arrays: 1.98 MiB
      XC: 0.00 MiB
      Poisson: 2.27 MiB
      vbar: 0.04 MiB
      Solvation: 25.27 MiB
    Wavefunctions: 7.92 MiB
      Arrays psit_nG: 3.62 MiB
      Eigensolver: 4.25 MiB
      Projections: 0.00 MiB
      Projectors: 0.05 MiB

Total number of cores used: 16
Domain decomposition: 4 x 2 x 2

Number of atoms: 17
Number of atomic orbitals: 41
Number of bands in calculation: 33
Number of valence electrons: 48
Bands to converge: occupied

... initialized

Initializing position-dependent things.

Solvation position-dependent initialization:
  Atomic radii for Power12Potential:
    Type    Radius   No. of atoms
       H     1.090     9
       O     1.520     3
       N     1.550     1
       C     1.700     4

Density initialized from atomic densities
Creating initial wave functions:
  33 bands from LCAO basis set

        .--------------------------------.  
       /|                                |  
      / |                                |  
     /  |                                |  
    /   |                                |  
   /    |                                |  
  /     |                                |  
 *      |                                |  
 |      |                O               |  
 |      |           H    C               |  
 |      |            H      O            |  
 |      |      H    C O                  |  
 |      |      HC   H     H              |  
 |      |        H    HH                 |  
 |      |                                |  
 |      |                                |  
 |      .--------------------------------.  
 |     /                                /   
 |    /                                /    
 |   /                                /     
 |  /                                /      
 | /                                /       
 |/                                /        
 *--------------------------------*         

Positions:
   0 N      7.555716    6.827788    5.070431    ( 0.0000,  0.0000,  0.0000)
   1 C      7.034114    7.148351    6.438337    ( 0.0000,  0.0000,  0.0000)
   2 C      8.215756    7.724285    7.278717    ( 0.0000,  0.0000,  0.0000)
   3 O      9.308713    7.906675    6.663352    ( 0.0000,  0.0000,  0.0000)
   4 H      8.448236    7.352817    4.987324    ( 0.0000,  0.0000,  0.0000)
   5 H      6.907899    7.081240    4.318827    ( 0.0000,  0.0000,  0.0000)
   6 H      6.295620    7.952729    6.331011    ( 0.0000,  0.0000,  0.0000)
   7 C      6.351724    5.928311    7.067990    ( 0.0000,  0.0000,  0.0000)
   8 O      7.303116    4.849818    6.960271    ( 0.0000,  0.0000,  0.0000)
   9 C      5.013950    5.568868    6.432868    ( 0.0000,  0.0000,  0.0000)
  10 H      6.198943    6.179165    8.130025    ( 0.0000,  0.0000,  0.0000)
  11 H      6.838326    4.011825    7.138635    ( 0.0000,  0.0000,  0.0000)
  12 H      4.601415    4.674674    6.923259    ( 0.0000,  0.0000,  0.0000)
  13 H      5.108511    5.367955    5.355154    ( 0.0000,  0.0000,  0.0000)
  14 H      4.291287    6.385158    6.572758    ( 0.0000,  0.0000,  0.0000)
  15 O      7.959726    7.988175    8.481173    ( 0.0000,  0.0000,  0.0000)
  16 H      7.782390    5.825601    4.993259    ( 0.0000,  0.0000,  0.0000)

Unit cell:
           periodic     x           y           z      points  spacing
  1. axis:    no    13.600000    0.000000    0.000000    68     0.2000
  2. axis:    no     0.000000   12.000000    0.000000    60     0.2000
  3. axis:    no     0.000000    0.000000   12.800000    64     0.2000

  Lengths:  13.600000  12.000000  12.800000
  Angles:   90.000000  90.000000  90.000000

Effective grid spacing dv^(1/3) = 0.2000

     iter     time        total  log10-change:
                         energy   eigst   dens
iter:   1 21:49:39  -107.242836
iter:   2 21:49:40  -100.880348   +0.61  -0.72
iter:   3 21:49:41   -99.157031   +0.58  -0.92
iter:   4 21:49:42   -98.946217   -0.20  -1.17
iter:   5 21:49:43   -98.939989   -0.65  -1.54
iter:   6 21:49:44   -98.936622c  -1.12  -2.09
iter:   7 21:49:44   -98.934363c  -1.87  -2.33
iter:   8 21:49:45   -98.933087c  -2.22  -2.49
iter:   9 21:49:45   -98.932762c  -2.50  -2.89
iter:  10 21:49:46   -98.932756c  -3.12  -2.95
iter:  11 21:49:46   -98.932764c  -3.43  -3.29
iter:  12 21:49:46   -98.932802c  -3.84  -3.53
iter:  13 21:49:47   -98.932976c  -4.23  -3.86
iter:  14 21:49:47   -98.932956c  -4.56  -4.16c
iter:  15 21:49:48   -98.932957c  -4.87  -4.34c
iter:  16 21:49:48   -98.932934c  -5.24  -4.61c
iter:  17 21:49:48   -98.932848c  -5.59  -4.77c
iter:  18 21:49:49   -98.932726c  -5.94  -5.00c
iter:  19 21:49:49   -98.932711c  -6.21  -5.28c
iter:  20 21:49:49   -98.932838c  -6.46  -5.74c
iter:  21 21:49:49   -98.932853c  -6.75  -5.77c
iter:  22 21:49:50   -98.932827c  -7.02  -5.72c
iter:  23 21:49:50   -98.932860c  -7.36  -5.51c
iter:  24 21:49:50   -98.932865c  -7.60c -5.57c

Converged after 24 iterations.

Dipole moment: (-1.479993, -1.068089, -1.768672) |e|*Ang

Energy contributions relative to reference atoms: (reference = -11827.202330)

Kinetic:        +99.676417
Potential:     -111.510107
External:        +0.024521
XC:             -90.362022
Entropy (-ST):   +0.000000
Local:           +3.051391
Interactions  
 surf:           +0.186935
--------------------------
Free energy:    -98.932865
Extrapolated:   -98.932865

Solvation cavity surface area: 162.77308
Solvation cavity volume: 166.82481
 Band  Eigenvalues  Occupancy
    0    -26.21759    2.00000
    1    -25.53679    2.00000
    2    -24.86173    2.00000
    3    -22.97154    2.00000
    4    -19.79063    2.00000
    5    -17.98175    2.00000
    6    -15.73496    2.00000
    7    -14.99630    2.00000
    8    -14.48934    2.00000
    9    -13.25875    2.00000
   10    -12.72167    2.00000
   11    -11.84074    2.00000
   12    -11.24671    2.00000
   13    -10.79231    2.00000
   14    -10.32931    2.00000
   15     -9.63914    2.00000
   16     -9.55248    2.00000
   17     -9.21318    2.00000
   18     -8.81066    2.00000
   19     -8.51331    2.00000
   20     -7.02581    2.00000
   21     -5.68042    2.00000
   22     -5.56404    2.00000
   23     -5.00727    2.00000
   24     -1.46247    0.00000
   25     -0.48535    0.00000
   26     -0.39899    0.00000
   27     -0.02779    0.00000
   28      0.27225    0.00000
   29      0.54547    0.00000
   30      0.64915    0.00000
   31      1.11374    0.00000
   32      1.23080    0.00000

Fermi level: -3.23487

Gap: 3.545 eV
Transition (v -> c):
  (s=0, k=0, n=23, [0.00, 0.00, 0.00]) -> (s=0, k=0, n=24, [0.00, 0.00, 0.00])
Input parameters:
  external: None

Timing:                              incl.     excl.
-----------------------------------------------------------
Hamiltonian:                        55.529     8.900   2.0% ||
 Atomic:                             1.118     0.026   0.0% |
  XC Correction:                     1.092     1.092   0.2% |
 Hartree integrate/restrict:         0.078     0.078   0.0% |
 Initialize Hamiltonian:             0.946     0.946   0.2% |
 Poisson:                           43.160    43.160   9.8% |---|
 XC 3D grid:                         1.304     1.304   0.3% |
 vbar:                               0.023     0.023   0.0% |
LCAO initialization:                 8.733     6.898   1.6% ||
 LCAO eigensolver:                   0.667     0.003   0.0% |
  Calculate projections:             0.001     0.001   0.0% |
  DenseAtomicCorrection:             0.001     0.001   0.0% |
  Distribute overlap matrix:         0.617     0.617   0.1% |
  Orbital Layouts:                   0.022     0.022   0.0% |
  Potential matrix:                  0.023     0.023   0.0% |
 LCAO to grid:                       0.160     0.160   0.0% |
 Set positions (LCAO WFS):           1.009     0.753   0.2% |
  Basic WFS set positions:           0.021     0.021   0.0% |
  Basis functions set positions:     0.003     0.003   0.0% |
  P tci:                             0.011     0.011   0.0% |
  ST tci:                            0.072     0.072   0.0% |
  mktci:                             0.149     0.149   0.0% |
SCF-cycle:                         366.465     0.626   0.1% |
 Davidson:                         121.733    44.840  10.2% |---|
  Apply hamiltonian:                10.098    10.098   2.3% ||
  Subspace diag:                    16.380     0.104   0.0% |
   calc_h_matrix:                   11.170     1.926   0.4% |
    Apply hamiltonian:               9.244     9.244   2.1% ||
   diagonalize:                      1.129     1.129   0.3% |
   rotate_psi:                       3.977     3.977   0.9% |
  calc. matrices:                   40.765    16.673   3.8% |-|
   Apply hamiltonian:               24.092    24.092   5.5% |-|
  diagonalize:                       1.417     1.417   0.3% |
  rotate_psi:                        8.232     8.232   1.9% ||
 Density:                            4.490     0.016   0.0% |
  Atomic density matrices:           1.057     1.057   0.2% |
  Mix:                               2.608     2.608   0.6% |
  Multipole moments:                 0.131     0.131   0.0% |
  Pseudo density:                    0.677     0.665   0.2% |
   Symmetrize density:               0.012     0.012   0.0% |
 Hamiltonian:                      238.003    15.108   3.4% ||
  Atomic:                           25.558     0.601   0.1% |
   XC Correction:                   24.957    24.957   5.7% |-|
  Hartree integrate/restrict:        1.462     1.462   0.3% |
  Poisson:                         169.145   169.145  38.6% |--------------|
  XC 3D grid:                       26.413    26.413   6.0% |-|
  vbar:                              0.318     0.318   0.1% |
 Orthonormalize:                     1.612     0.004   0.0% |
  calc_s_matrix:                     0.048     0.048   0.0% |
  inverse-cholesky:                  1.452     1.452   0.3% |
  projections:                       0.001     0.001   0.0% |
  rotate_psi_s:                      0.107     0.107   0.0% |
Set symmetry:                        0.029     0.029   0.0% |
Other:                               7.442     7.442   1.7% ||
-----------------------------------------------------------
Total:                                       438.198 100.0%

Memory usage: 290.08 MiB
Date: Fri Oct  6 21:49:50 2023
