
  ___ ___ ___ _ _ _  
 |   |   |_  | | | | 
 | | | | | . | | | | 
 |__ |  _|___|_____|  23.9.2b1
 |___|_|             

User:   fr_ez1021@n1118
Date:   Fri Oct  6 15:29:24 2023
Arch:   x86_64
Pid:    2672111
CWD:    /lustre/home/fr/fr_fr/fr_ez1021/sims/amino_acids_publish/scripts
Python: 3.8.3
gpaw:   /home/fr/fr_fr/fr_ez1021/source/origin/gpaw/gpaw (f94a1458af)
_gpaw:  /home/fr/fr_fr/fr_ez1021/source/origin/gpaw/build/lib.linux-x86_64-3.8/
        _gpaw.cpython-38-x86_64-linux-gnu.so (d6c5f22bb1)
ase:    /home/fr/fr_fr/fr_ez1021/source/origin/ase/ase (version 3.23.0b1-4bd916e410)
numpy:  /opt/bwhpc/common/numlib/python_numpy/1.19.0_python-3.8.3/lib/python3.8/site-packages/numpy-1.19.0-py3.8-linux-x86_64.egg/numpy (version 1.19.0)
scipy:  /opt/bwhpc/common/numlib/python_scipy/1.5.0_numpy-1.19.0_python-3.8.3/lib/python3.8/site-packages/scipy-1.5.0-py3.8-linux-x86_64.egg/scipy (version 1.5.0)
libxc:  5.1.7
units:  Angstrom and eV
cores: 16
OpenMP: False
OMP_NUM_THREADS: 1

Input parameters:
  mode: fd
  xc: PBE

System changes: positions, numbers, cell, pbc, initial_charges, initial_magmoms 

Initialize ...

species:
  N:
    name: Nitrogen
    id: f7500608b86eaa90eef8b1d9a670dc53
    Z: 7.0
    valence: 5
    core: 2
    charge: 0.0
    file: /home/fr/fr_fr/fr_ez1021/source/gpaw-setups/gpaw-setups-0.9.20000/N.PBE.gz
    compensation charges: {type: gauss,
                           rc: 0.18,
                           lmax: 2}
    cutoffs: {filter: 1.11,
              core: 0.96}
    valence states:
      #              energy  rcut
      - 2s(2.00)   -18.583   0.603
      - 2p(3.00)    -7.089   0.529
      -  s           8.629   0.603
      -  p          20.123   0.529
      -  d           0.000   0.577
  
    # Using partial waves for N as LCAO basis

  C:
    name: Carbon
    id: 4aa54d4b901d75f77cc0ea3eec22967b
    Z: 6.0
    valence: 4
    core: 2
    charge: 0.0
    file: /home/fr/fr_fr/fr_ez1021/source/gpaw-setups/gpaw-setups-0.9.20000/C.PBE.gz
    compensation charges: {type: gauss,
                           rc: 0.20,
                           lmax: 2}
    cutoffs: {filter: 1.14,
              core: 1.14}
    valence states:
      #              energy  rcut
      - 2s(2.00)   -13.751   0.635
      - 2p(2.00)    -5.284   0.635
      -  s          13.461   0.635
      -  p          21.927   0.635
      -  d           0.000   0.635
  
    # Using partial waves for C as LCAO basis

  O:
    name: Oxygen
    id: 32ecd46bf208036f09c70b0ec9a88b78
    Z: 8.0
    valence: 6
    core: 2
    charge: 0.0
    file: /home/fr/fr_fr/fr_ez1021/source/gpaw-setups/gpaw-setups-0.9.20000/O.PBE.gz
    compensation charges: {type: gauss,
                           rc: 0.21,
                           lmax: 2}
    cutoffs: {filter: 1.17,
              core: 0.83}
    valence states:
      #              energy  rcut
      - 2s(2.00)   -23.961   0.688
      - 2p(4.00)    -9.029   0.598
      -  s           3.251   0.688
      -  p          18.182   0.598
      -  d           0.000   0.619
  
    # Using partial waves for O as LCAO basis

  H:
    name: Hydrogen
    id: d65de229564ff8ea4db303e23b6d1ecf
    Z: 1.0
    valence: 1
    core: 0
    charge: 0.0
    file: /home/fr/fr_fr/fr_ez1021/source/gpaw-setups/gpaw-setups-0.9.20000/H.PBE.gz
    compensation charges: {type: gauss,
                           rc: 0.15,
                           lmax: 2}
    cutoffs: {filter: 0.85,
              core: 0.53}
    valence states:
      #              energy  rcut
      - 1s(1.00)    -6.494   0.476
      -  s          20.717   0.476
      -  p           0.000   0.476
  
    # Using partial waves for H as LCAO basis

Reference energy: -10838.958469  # eV

Spin-paired calculation

Convergence criteria:
 Maximum [total energy] change in last 3 cyles: 0.0005 eV / valence electron
 Maximum integral of absolute [dens]ity change: 0.0001 electrons / valence electron
 Maximum integral of absolute [eigenst]ate change: 4e-08 eV^2 / valence electron
 Maximum number of scf [iter]ations: 333
 (Square brackets indicate name in SCF output, whereas a 'c' in
 the SCF output indicates the quantity has converged.)

Symmetries present (total): 1

  ( 1  0  0)
  ( 0  1  0)
  ( 0  0  1)

1 k-point (Gamma)
1 k-point in the irreducible part of the Brillouin zone
       k-points in crystal coordinates                weights
   0:     0.00000000    0.00000000    0.00000000          1/1

Wave functions: Uniform real-space grid
  Kinetic energy operator: 6*3+1=19 point O(h^6) finite-difference Laplacian
  ScaLapack parameters: grid=1x1, blocksize=None
  Wavefunction extrapolation:
    Improved wavefunction reuse through dual PAW basis 

Occupation numbers: # Zero width 

Eigensolver
   Davidson(niter=2) 

Densities:
  Coarse grid: 68*64*60 grid
  Fine grid: 136*128*120 grid
  Total Charge: 0.000000 

Density mixing:
  Method: separate
  Backend: pulay
  Linear mixing parameter: 0.25
  old densities: 3
  Damping of long wavelength oscillations: 1  # (no daming) 

Hamiltonian:
  XC and Coulomb potentials evaluated on a 136*128*120 grid
  Using the PBE Exchange-Correlation functional
  Interpolation: tri-quintic (5. degree polynomial)
  Poisson solver: FastPoissonSolver using
    Stencil: 6*3+1=19 point O(h^6) finite-difference Laplacian
    FFT axes: []
    FST axes: [2, 1, 0]
 

XC parameters: PBE with 2 nearest neighbor stencil

Memory estimate:
  Process memory now: 157.94 MiB
  Calculator: 14.11 MiB
    Density: 4.17 MiB
      Arrays: 3.03 MiB
      Localized functions: 0.48 MiB
      Mixer: 0.66 MiB
    Hamiltonian: 2.02 MiB
      Arrays: 1.98 MiB
      XC: 0.00 MiB
      Poisson: 0.00 MiB
      vbar: 0.04 MiB
    Wavefunctions: 7.93 MiB
      Arrays psit_nG: 3.62 MiB
      Eigensolver: 4.25 MiB
      Projections: 0.00 MiB
      Projectors: 0.05 MiB

Total number of cores used: 16
Domain decomposition: 4 x 2 x 2

Number of atoms: 19
Number of atomic orbitals: 43
Number of bands in calculation: 33
Number of valence electrons: 48
Bands to converge: occupied

... initialized

Initializing position-dependent things.

Density initialized from atomic densities
Creating initial wave functions:
  33 bands from LCAO basis set

         .--------------------------------.  
        /|                                |  
       / |                                |  
      /  |                                |  
     /   |                                |  
    /    |                                |  
   /     |                                |  
  /      |                                |  
 *       |                                |  
 |       |        H                       |  
 |       |     H C   H  H                 |  
 |       |      H   C HC   O              |  
 |       |            N   C               |  
 |       |       H CH     H O             |  
 |       |       H   H                    |  
 |       .--------------------------------.  
 |      /                                /   
 |     /                                /    
 |    /                                /     
 |   /                                /      
 |  /                                /       
 | /                                /        
 |/                                /         
 *--------------------------------*          

Positions:
   0 N      6.788003    7.783080    4.730524    ( 0.0000,  0.0000,  0.0000)
   1 C      7.245087    7.140712    5.979204    ( 0.0000,  0.0000,  0.0000)
   2 C      8.664052    6.559061    5.757739    ( 0.0000,  0.0000,  0.0000)
   3 O      9.211172    6.926698    4.584999    ( 0.0000,  0.0000,  0.0000)
   4 H      6.288263    8.650847    4.910889    ( 0.0000,  0.0000,  0.0000)
   5 H      6.159805    7.170965    4.208519    ( 0.0000,  0.0000,  0.0000)
   6 H      7.386608    7.939165    6.725460    ( 0.0000,  0.0000,  0.0000)
   7 C      6.299674    6.082962    6.592938    ( 0.0000,  0.0000,  0.0000)
   8 C      5.004336    6.721614    7.102103    ( 0.0000,  0.0000,  0.0000)
   9 C      6.020938    4.923903    5.628084    ( 0.0000,  0.0000,  0.0000)
  10 H      6.853560    5.674803    7.451704    ( 0.0000,  0.0000,  0.0000)
  11 H      5.206975    7.516812    7.833592    ( 0.0000,  0.0000,  0.0000)
  12 H      4.366608    5.973513    7.591648    ( 0.0000,  0.0000,  0.0000)
  13 H      4.416507    7.161364    6.281697    ( 0.0000,  0.0000,  0.0000)
  14 H      6.949398    4.453041    5.278907    ( 0.0000,  0.0000,  0.0000)
  15 H      5.443671    5.243410    4.745378    ( 0.0000,  0.0000,  0.0000)
  16 H      5.422905    4.149153    6.125272    ( 0.0000,  0.0000,  0.0000)
  17 O      9.233393    5.864501    6.570623    ( 0.0000,  0.0000,  0.0000)
  18 H      8.492572    7.483767    4.166409    ( 0.0000,  0.0000,  0.0000)

Unit cell:
           periodic     x           y           z      points  spacing
  1. axis:    no    13.600000    0.000000    0.000000    68     0.2000
  2. axis:    no     0.000000   12.800000    0.000000    64     0.2000
  3. axis:    no     0.000000    0.000000   12.000000    60     0.2000

  Lengths:  13.600000  12.800000  12.000000
  Angles:   90.000000  90.000000  90.000000

Effective grid spacing dv^(1/3) = 0.2000

     iter     time        total  log10-change:
                         energy   eigst   dens
iter:   1 15:29:25  -118.225692
iter:   2 15:29:26  -111.275751   +0.64  -0.69
iter:   3 15:29:26  -109.310077   +0.69  -0.89
iter:   4 15:29:26  -109.063776   -0.27  -1.18
iter:   5 15:29:27  -109.038996   -0.65  -1.50
iter:   6 15:29:27  -109.036964   -1.02  -2.20
iter:   7 15:29:27  -109.037113c  -1.76  -2.38
iter:   8 15:29:27  -109.035926c  -2.27  -2.49
iter:   9 15:29:28  -109.036082c  -2.43  -2.78
iter:  10 15:29:28  -109.035893c  -3.03  -2.98
iter:  11 15:29:28  -109.035914c  -3.48  -3.40
iter:  12 15:29:29  -109.035920c  -3.83  -3.56
iter:  13 15:29:29  -109.035928c  -4.31  -3.96
iter:  14 15:29:29  -109.035930c  -4.70  -4.10c
iter:  15 15:29:29  -109.035931c  -5.05  -4.49c
iter:  16 15:29:30  -109.035932c  -5.33  -4.64c
iter:  17 15:29:30  -109.035933c  -5.68  -5.02c
iter:  18 15:29:30  -109.035933c  -5.95  -5.29c
iter:  19 15:29:31  -109.035933c  -6.38  -5.55c
iter:  20 15:29:31  -109.035933c  -6.63  -5.60c
iter:  21 15:29:31  -109.035933c  -6.94  -5.73c
iter:  22 15:29:32  -109.035933c  -7.35  -5.96c
iter:  23 15:29:32  -109.035933c  -7.66c -6.00c

Converged after 23 iterations.

Dipole moment: (-1.029241, 0.436928, -0.169778) |e|*Ang

Energy contributions relative to reference atoms: (reference = -10838.958469)

Kinetic:       +108.876981
Potential:     -121.502284
External:        +0.000000
XC:             -98.883803
Entropy (-ST):   +0.000000
Local:           +2.473173
--------------------------
Free energy:   -109.035933
Extrapolated:  -109.035933

 Band  Eigenvalues  Occupancy
    0    -27.25308    2.00000
    1    -25.16062    2.00000
    2    -22.93432    2.00000
    3    -20.00949    2.00000
    4    -17.55803    2.00000
    5    -17.22245    2.00000
    6    -14.70812    2.00000
    7    -14.23681    2.00000
    8    -13.41191    2.00000
    9    -12.64864    2.00000
   10    -11.84952    2.00000
   11    -11.16633    2.00000
   12    -11.08433    2.00000
   13    -10.42163    2.00000
   14    -10.08573    2.00000
   15     -9.94987    2.00000
   16     -9.57393    2.00000
   17     -8.98206    2.00000
   18     -8.45083    2.00000
   19     -8.36690    2.00000
   20     -8.26615    2.00000
   21     -7.39872    2.00000
   22     -7.17022    2.00000
   23     -5.93301    2.00000
   24     -1.17486    0.00000
   25     -0.73345    0.00000
   26     -0.15295    0.00000
   27     -0.01972    0.00000
   28      0.14413    0.00000
   29      0.66573    0.00000
   30      0.82258    0.00000
   31      0.94440    0.00000
   32      1.01882    0.00000

Fermi level: -3.55393

Gap: 4.758 eV
Transition (v -> c):
  (s=0, k=0, n=23, [0.00, 0.00, 0.00]) -> (s=0, k=0, n=24, [0.00, 0.00, 0.00])
Input parameters:
  external: {direction: [1. 0. 0.],
             name: ConstantElectricField,
             strength: 0.01}

Initialize ...

species:
  N:
    name: Nitrogen
    id: f7500608b86eaa90eef8b1d9a670dc53
    Z: 7.0
    valence: 5
    core: 2
    charge: 0.0
    file: /home/fr/fr_fr/fr_ez1021/source/gpaw-setups/gpaw-setups-0.9.20000/N.PBE.gz
    compensation charges: {type: gauss,
                           rc: 0.18,
                           lmax: 2}
    cutoffs: {filter: 1.11,
              core: 0.96}
    valence states:
      #              energy  rcut
      - 2s(2.00)   -18.583   0.603
      - 2p(3.00)    -7.089   0.529
      -  s           8.629   0.603
      -  p          20.123   0.529
      -  d           0.000   0.577
  
    # Using partial waves for N as LCAO basis

  C:
    name: Carbon
    id: 4aa54d4b901d75f77cc0ea3eec22967b
    Z: 6.0
    valence: 4
    core: 2
    charge: 0.0
    file: /home/fr/fr_fr/fr_ez1021/source/gpaw-setups/gpaw-setups-0.9.20000/C.PBE.gz
    compensation charges: {type: gauss,
                           rc: 0.20,
                           lmax: 2}
    cutoffs: {filter: 1.14,
              core: 1.14}
    valence states:
      #              energy  rcut
      - 2s(2.00)   -13.751   0.635
      - 2p(2.00)    -5.284   0.635
      -  s          13.461   0.635
      -  p          21.927   0.635
      -  d           0.000   0.635
  
    # Using partial waves for C as LCAO basis

  O:
    name: Oxygen
    id: 32ecd46bf208036f09c70b0ec9a88b78
    Z: 8.0
    valence: 6
    core: 2
    charge: 0.0
    file: /home/fr/fr_fr/fr_ez1021/source/gpaw-setups/gpaw-setups-0.9.20000/O.PBE.gz
    compensation charges: {type: gauss,
                           rc: 0.21,
                           lmax: 2}
    cutoffs: {filter: 1.17,
              core: 0.83}
    valence states:
      #              energy  rcut
      - 2s(2.00)   -23.961   0.688
      - 2p(4.00)    -9.029   0.598
      -  s           3.251   0.688
      -  p          18.182   0.598
      -  d           0.000   0.619
  
    # Using partial waves for O as LCAO basis

  H:
    name: Hydrogen
    id: d65de229564ff8ea4db303e23b6d1ecf
    Z: 1.0
    valence: 1
    core: 0
    charge: 0.0
    file: /home/fr/fr_fr/fr_ez1021/source/gpaw-setups/gpaw-setups-0.9.20000/H.PBE.gz
    compensation charges: {type: gauss,
                           rc: 0.15,
                           lmax: 2}
    cutoffs: {filter: 0.85,
              core: 0.53}
    valence states:
      #              energy  rcut
      - 1s(1.00)    -6.494   0.476
      -  s          20.717   0.476
      -  p           0.000   0.476
  
    # Using partial waves for H as LCAO basis

Reference energy: -10838.958469  # eV

Spin-paired calculation

Convergence criteria:
 Maximum [total energy] change in last 3 cyles: 0.0005 eV / valence electron
 Maximum integral of absolute [dens]ity change: 0.0001 electrons / valence electron
 Maximum integral of absolute [eigenst]ate change: 4e-08 eV^2 / valence electron
 Maximum number of scf [iter]ations: 333
 (Square brackets indicate name in SCF output, whereas a 'c' in
 the SCF output indicates the quantity has converged.)

Symmetries present (total): 1

  ( 1  0  0)
  ( 0  1  0)
  ( 0  0  1)

1 k-point (Gamma)
1 k-point in the irreducible part of the Brillouin zone
       k-points in crystal coordinates                weights
   0:     0.00000000    0.00000000    0.00000000          1/1

Wave functions: Uniform real-space grid
  Kinetic energy operator: 6*3+1=19 point O(h^6) finite-difference Laplacian
  ScaLapack parameters: grid=1x1, blocksize=None
  Wavefunction extrapolation:
    Improved wavefunction reuse through dual PAW basis 

Occupation numbers: # Zero width 

Eigensolver
   Davidson(niter=2) 

Densities:
  Coarse grid: 68*64*60 grid
  Fine grid: 136*128*120 grid
  Total Charge: 0.000000 

Density mixing:
  Method: separate
  Backend: pulay
  Linear mixing parameter: 0.25
  old densities: 3
  Damping of long wavelength oscillations: 1  # (no daming) 

Hamiltonian:
  XC and Coulomb potentials evaluated on a 136*128*120 grid
  Using the PBE Exchange-Correlation functional
  External potential:
    Constant electric field: (0.010, 0.000, 0.000) V/Ang
  Interpolation: tri-quintic (5. degree polynomial)
  Poisson solver: FastPoissonSolver using
    Stencil: 6*3+1=19 point O(h^6) finite-difference Laplacian
    FFT axes: []
    FST axes: [2, 1, 0]
 

XC parameters: PBE with 2 nearest neighbor stencil

Memory estimate:
  Process memory now: 233.20 MiB
  Calculator: 14.11 MiB
    Density: 4.17 MiB
      Arrays: 3.03 MiB
      Localized functions: 0.48 MiB
      Mixer: 0.66 MiB
    Hamiltonian: 2.02 MiB
      Arrays: 1.98 MiB
      XC: 0.00 MiB
      Poisson: 0.00 MiB
      vbar: 0.04 MiB
    Wavefunctions: 7.93 MiB
      Arrays psit_nG: 3.62 MiB
      Eigensolver: 4.25 MiB
      Projections: 0.00 MiB
      Projectors: 0.05 MiB

Total number of cores used: 16
Domain decomposition: 4 x 2 x 2

Number of atoms: 19
Number of atomic orbitals: 43
Number of bands in calculation: 33
Number of valence electrons: 48
Bands to converge: occupied

... initialized

Initializing position-dependent things.

Density initialized from atomic densities
Creating initial wave functions:
  33 bands from LCAO basis set

         .--------------------------------.  
        /|                                |  
       / |                                |  
      /  |                                |  
     /   |                                |  
    /    |                                |  
   /     |                                |  
  /      |                                |  
 *       |                                |  
 |       |        H                       |  
 |       |     H C   H  H                 |  
 |       |      H   C HC   O              |  
 |       |            N   C               |  
 |       |       H CH     H O             |  
 |       |       H   H                    |  
 |       .--------------------------------.  
 |      /                                /   
 |     /                                /    
 |    /                                /     
 |   /                                /      
 |  /                                /       
 | /                                /        
 |/                                /         
 *--------------------------------*          

Positions:
   0 N      6.788003    7.783080    4.730524    ( 0.0000,  0.0000,  0.0000)
   1 C      7.245087    7.140712    5.979204    ( 0.0000,  0.0000,  0.0000)
   2 C      8.664052    6.559061    5.757739    ( 0.0000,  0.0000,  0.0000)
   3 O      9.211172    6.926698    4.584999    ( 0.0000,  0.0000,  0.0000)
   4 H      6.288263    8.650847    4.910889    ( 0.0000,  0.0000,  0.0000)
   5 H      6.159805    7.170965    4.208519    ( 0.0000,  0.0000,  0.0000)
   6 H      7.386608    7.939165    6.725460    ( 0.0000,  0.0000,  0.0000)
   7 C      6.299674    6.082962    6.592938    ( 0.0000,  0.0000,  0.0000)
   8 C      5.004336    6.721614    7.102103    ( 0.0000,  0.0000,  0.0000)
   9 C      6.020938    4.923903    5.628084    ( 0.0000,  0.0000,  0.0000)
  10 H      6.853560    5.674803    7.451704    ( 0.0000,  0.0000,  0.0000)
  11 H      5.206975    7.516812    7.833592    ( 0.0000,  0.0000,  0.0000)
  12 H      4.366608    5.973513    7.591648    ( 0.0000,  0.0000,  0.0000)
  13 H      4.416507    7.161364    6.281697    ( 0.0000,  0.0000,  0.0000)
  14 H      6.949398    4.453041    5.278907    ( 0.0000,  0.0000,  0.0000)
  15 H      5.443671    5.243410    4.745378    ( 0.0000,  0.0000,  0.0000)
  16 H      5.422905    4.149153    6.125272    ( 0.0000,  0.0000,  0.0000)
  17 O      9.233393    5.864501    6.570623    ( 0.0000,  0.0000,  0.0000)
  18 H      8.492572    7.483767    4.166409    ( 0.0000,  0.0000,  0.0000)

Unit cell:
           periodic     x           y           z      points  spacing
  1. axis:    no    13.600000    0.000000    0.000000    68     0.2000
  2. axis:    no     0.000000   12.800000    0.000000    64     0.2000
  3. axis:    no     0.000000    0.000000   12.000000    60     0.2000

  Lengths:  13.600000  12.800000  12.000000
  Angles:   90.000000  90.000000  90.000000

Effective grid spacing dv^(1/3) = 0.2000

     iter     time        total  log10-change:
                         energy   eigst   dens
iter:   1 15:29:33  -118.211835
iter:   2 15:29:33  -111.265030   +0.64  -0.69
iter:   3 15:29:33  -109.299915   +0.69  -0.89
iter:   4 15:29:34  -109.053477   -0.27  -1.18
iter:   5 15:29:34  -109.028753   -0.65  -1.50
iter:   6 15:29:34  -109.026724   -1.02  -2.20
iter:   7 15:29:35  -109.026869c  -1.76  -2.38
iter:   8 15:29:35  -109.025682c  -2.27  -2.49
iter:   9 15:29:35  -109.025841c  -2.42  -2.78
iter:  10 15:29:36  -109.025648c  -3.03  -2.98
iter:  11 15:29:36  -109.025669c  -3.48  -3.40
iter:  12 15:29:36  -109.025675c  -3.83  -3.56
iter:  13 15:29:36  -109.025683c  -4.30  -3.96
iter:  14 15:29:37  -109.025685c  -4.70  -4.10c
iter:  15 15:29:37  -109.025686c  -5.05  -4.48c
iter:  16 15:29:37  -109.025687c  -5.33  -4.64c
iter:  17 15:29:38  -109.025688c  -5.69  -5.00c
iter:  18 15:29:38  -109.025688c  -5.96  -5.29c
iter:  19 15:29:38  -109.025688c  -6.38  -5.55c
iter:  20 15:29:38  -109.025688c  -6.63  -5.61c
iter:  21 15:29:39  -109.025688c  -6.94  -5.71c
iter:  22 15:29:39  -109.025688c  -7.36  -5.97c
iter:  23 15:29:39  -109.025688c  -7.66c -5.97c

Converged after 23 iterations.

Dipole moment: (-1.019766, 0.436721, -0.170289) |e|*Ang

Energy contributions relative to reference atoms: (reference = -10838.958469)

Kinetic:       +108.879450
Potential:     -121.507106
External:        +0.010198
XC:             -98.881308
Entropy (-ST):   +0.000000
Local:           +2.473080
--------------------------
Free energy:   -109.025688
Extrapolated:  -109.025688

 Band  Eigenvalues  Occupancy
    0    -27.23864    2.00000
    1    -25.14600    2.00000
    2    -22.93323    2.00000
    3    -20.01428    2.00000
    4    -17.55684    2.00000
    5    -17.23122    2.00000
    6    -14.70274    2.00000
    7    -14.23171    2.00000
    8    -13.40966    2.00000
    9    -12.64662    2.00000
   10    -11.84941    2.00000
   11    -11.16294    2.00000
   12    -11.08842    2.00000
   13    -10.41019    2.00000
   14    -10.08554    2.00000
   15     -9.94620    2.00000
   16     -9.58361    2.00000
   17     -8.98084    2.00000
   18     -8.45290    2.00000
   19     -8.37038    2.00000
   20     -8.26845    2.00000
   21     -7.38332    2.00000
   22     -7.16568    2.00000
   23     -5.92151    2.00000
   24     -1.17427    0.00000
   25     -0.73305    0.00000
   26     -0.15677    0.00000
   27     -0.03040    0.00000
   28      0.13975    0.00000
   29      0.65725    0.00000
   30      0.81989    0.00000
   31      0.93797    0.00000
   32      1.01941    0.00000

Fermi level: -3.54789

Gap: 4.747 eV
Transition (v -> c):
  (s=0, k=0, n=23, [0.00, 0.00, 0.00]) -> (s=0, k=0, n=24, [0.00, 0.00, 0.00])
Input parameters:
  external: {direction: [0. 1. 0.],
             name: ConstantElectricField,
             strength: 0.01}

Initialize ...

species:
  N:
    name: Nitrogen
    id: f7500608b86eaa90eef8b1d9a670dc53
    Z: 7.0
    valence: 5
    core: 2
    charge: 0.0
    file: /home/fr/fr_fr/fr_ez1021/source/gpaw-setups/gpaw-setups-0.9.20000/N.PBE.gz
    compensation charges: {type: gauss,
                           rc: 0.18,
                           lmax: 2}
    cutoffs: {filter: 1.11,
              core: 0.96}
    valence states:
      #              energy  rcut
      - 2s(2.00)   -18.583   0.603
      - 2p(3.00)    -7.089   0.529
      -  s           8.629   0.603
      -  p          20.123   0.529
      -  d           0.000   0.577
  
    # Using partial waves for N as LCAO basis

  C:
    name: Carbon
    id: 4aa54d4b901d75f77cc0ea3eec22967b
    Z: 6.0
    valence: 4
    core: 2
    charge: 0.0
    file: /home/fr/fr_fr/fr_ez1021/source/gpaw-setups/gpaw-setups-0.9.20000/C.PBE.gz
    compensation charges: {type: gauss,
                           rc: 0.20,
                           lmax: 2}
    cutoffs: {filter: 1.14,
              core: 1.14}
    valence states:
      #              energy  rcut
      - 2s(2.00)   -13.751   0.635
      - 2p(2.00)    -5.284   0.635
      -  s          13.461   0.635
      -  p          21.927   0.635
      -  d           0.000   0.635
  
    # Using partial waves for C as LCAO basis

  O:
    name: Oxygen
    id: 32ecd46bf208036f09c70b0ec9a88b78
    Z: 8.0
    valence: 6
    core: 2
    charge: 0.0
    file: /home/fr/fr_fr/fr_ez1021/source/gpaw-setups/gpaw-setups-0.9.20000/O.PBE.gz
    compensation charges: {type: gauss,
                           rc: 0.21,
                           lmax: 2}
    cutoffs: {filter: 1.17,
              core: 0.83}
    valence states:
      #              energy  rcut
      - 2s(2.00)   -23.961   0.688
      - 2p(4.00)    -9.029   0.598
      -  s           3.251   0.688
      -  p          18.182   0.598
      -  d           0.000   0.619
  
    # Using partial waves for O as LCAO basis

  H:
    name: Hydrogen
    id: d65de229564ff8ea4db303e23b6d1ecf
    Z: 1.0
    valence: 1
    core: 0
    charge: 0.0
    file: /home/fr/fr_fr/fr_ez1021/source/gpaw-setups/gpaw-setups-0.9.20000/H.PBE.gz
    compensation charges: {type: gauss,
                           rc: 0.15,
                           lmax: 2}
    cutoffs: {filter: 0.85,
              core: 0.53}
    valence states:
      #              energy  rcut
      - 1s(1.00)    -6.494   0.476
      -  s          20.717   0.476
      -  p           0.000   0.476
  
    # Using partial waves for H as LCAO basis

Reference energy: -10838.958469  # eV

Spin-paired calculation

Convergence criteria:
 Maximum [total energy] change in last 3 cyles: 0.0005 eV / valence electron
 Maximum integral of absolute [dens]ity change: 0.0001 electrons / valence electron
 Maximum integral of absolute [eigenst]ate change: 4e-08 eV^2 / valence electron
 Maximum number of scf [iter]ations: 333
 (Square brackets indicate name in SCF output, whereas a 'c' in
 the SCF output indicates the quantity has converged.)

Symmetries present (total): 1

  ( 1  0  0)
  ( 0  1  0)
  ( 0  0  1)

1 k-point (Gamma)
1 k-point in the irreducible part of the Brillouin zone
       k-points in crystal coordinates                weights
   0:     0.00000000    0.00000000    0.00000000          1/1

Wave functions: Uniform real-space grid
  Kinetic energy operator: 6*3+1=19 point O(h^6) finite-difference Laplacian
  ScaLapack parameters: grid=1x1, blocksize=None
  Wavefunction extrapolation:
    Improved wavefunction reuse through dual PAW basis 

Occupation numbers: # Zero width 

Eigensolver
   Davidson(niter=2) 

Densities:
  Coarse grid: 68*64*60 grid
  Fine grid: 136*128*120 grid
  Total Charge: 0.000000 

Density mixing:
  Method: separate
  Backend: pulay
  Linear mixing parameter: 0.25
  old densities: 3
  Damping of long wavelength oscillations: 1  # (no daming) 

Hamiltonian:
  XC and Coulomb potentials evaluated on a 136*128*120 grid
  Using the PBE Exchange-Correlation functional
  External potential:
    Constant electric field: (0.000, 0.010, 0.000) V/Ang
  Interpolation: tri-quintic (5. degree polynomial)
  Poisson solver: FastPoissonSolver using
    Stencil: 6*3+1=19 point O(h^6) finite-difference Laplacian
    FFT axes: []
    FST axes: [2, 1, 0]
 

XC parameters: PBE with 2 nearest neighbor stencil

Memory estimate:
  Process memory now: 245.66 MiB
  Calculator: 14.11 MiB
    Density: 4.17 MiB
      Arrays: 3.03 MiB
      Localized functions: 0.48 MiB
      Mixer: 0.66 MiB
    Hamiltonian: 2.02 MiB
      Arrays: 1.98 MiB
      XC: 0.00 MiB
      Poisson: 0.00 MiB
      vbar: 0.04 MiB
    Wavefunctions: 7.93 MiB
      Arrays psit_nG: 3.62 MiB
      Eigensolver: 4.25 MiB
      Projections: 0.00 MiB
      Projectors: 0.05 MiB

Total number of cores used: 16
Domain decomposition: 4 x 2 x 2

Number of atoms: 19
Number of atomic orbitals: 43
Number of bands in calculation: 33
Number of valence electrons: 48
Bands to converge: occupied

... initialized

Initializing position-dependent things.

Density initialized from atomic densities
Creating initial wave functions:
  33 bands from LCAO basis set

         .--------------------------------.  
        /|                                |  
       / |                                |  
      /  |                                |  
     /   |                                |  
    /    |                                |  
   /     |                                |  
  /      |                                |  
 *       |                                |  
 |       |        H                       |  
 |       |     H C   H  H                 |  
 |       |      H   C HC   O              |  
 |       |            N   C               |  
 |       |       H CH     H O             |  
 |       |       H   H                    |  
 |       .--------------------------------.  
 |      /                                /   
 |     /                                /    
 |    /                                /     
 |   /                                /      
 |  /                                /       
 | /                                /        
 |/                                /         
 *--------------------------------*          

Positions:
   0 N      6.788003    7.783080    4.730524    ( 0.0000,  0.0000,  0.0000)
   1 C      7.245087    7.140712    5.979204    ( 0.0000,  0.0000,  0.0000)
   2 C      8.664052    6.559061    5.757739    ( 0.0000,  0.0000,  0.0000)
   3 O      9.211172    6.926698    4.584999    ( 0.0000,  0.0000,  0.0000)
   4 H      6.288263    8.650847    4.910889    ( 0.0000,  0.0000,  0.0000)
   5 H      6.159805    7.170965    4.208519    ( 0.0000,  0.0000,  0.0000)
   6 H      7.386608    7.939165    6.725460    ( 0.0000,  0.0000,  0.0000)
   7 C      6.299674    6.082962    6.592938    ( 0.0000,  0.0000,  0.0000)
   8 C      5.004336    6.721614    7.102103    ( 0.0000,  0.0000,  0.0000)
   9 C      6.020938    4.923903    5.628084    ( 0.0000,  0.0000,  0.0000)
  10 H      6.853560    5.674803    7.451704    ( 0.0000,  0.0000,  0.0000)
  11 H      5.206975    7.516812    7.833592    ( 0.0000,  0.0000,  0.0000)
  12 H      4.366608    5.973513    7.591648    ( 0.0000,  0.0000,  0.0000)
  13 H      4.416507    7.161364    6.281697    ( 0.0000,  0.0000,  0.0000)
  14 H      6.949398    4.453041    5.278907    ( 0.0000,  0.0000,  0.0000)
  15 H      5.443671    5.243410    4.745378    ( 0.0000,  0.0000,  0.0000)
  16 H      5.422905    4.149153    6.125272    ( 0.0000,  0.0000,  0.0000)
  17 O      9.233393    5.864501    6.570623    ( 0.0000,  0.0000,  0.0000)
  18 H      8.492572    7.483767    4.166409    ( 0.0000,  0.0000,  0.0000)

Unit cell:
           periodic     x           y           z      points  spacing
  1. axis:    no    13.600000    0.000000    0.000000    68     0.2000
  2. axis:    no     0.000000   12.800000    0.000000    64     0.2000
  3. axis:    no     0.000000    0.000000   12.000000    60     0.2000

  Lengths:  13.600000  12.800000  12.000000
  Angles:   90.000000  90.000000  90.000000

Effective grid spacing dv^(1/3) = 0.2000

     iter     time        total  log10-change:
                         energy   eigst   dens
iter:   1 15:29:40  -118.233392
iter:   2 15:29:40  -111.280691   +0.64  -0.69
iter:   3 15:29:41  -109.314571   +0.69  -0.89
iter:   4 15:29:41  -109.068159   -0.27  -1.18
iter:   5 15:29:41  -109.043382   -0.65  -1.50
iter:   6 15:29:42  -109.041369   -1.02  -2.20
iter:   7 15:29:42  -109.041523c  -1.76  -2.38
iter:   8 15:29:42  -109.040335c  -2.26  -2.49
iter:   9 15:29:42  -109.040493c  -2.43  -2.78
iter:  10 15:29:43  -109.040304c  -3.03  -2.98
iter:  11 15:29:43  -109.040324c  -3.48  -3.40
iter:  12 15:29:43  -109.040331c  -3.83  -3.56
iter:  13 15:29:44  -109.040338c  -4.30  -3.96
iter:  14 15:29:44  -109.040341c  -4.70  -4.10c
iter:  15 15:29:44  -109.040342c  -5.05  -4.49c
iter:  16 15:29:45  -109.040343c  -5.33  -4.64c
iter:  17 15:29:45  -109.040343c  -5.68  -5.03c
iter:  18 15:29:45  -109.040343c  -5.95  -5.29c
iter:  19 15:29:45  -109.040343c  -6.38  -5.54c
iter:  20 15:29:46  -109.040344c  -6.63  -5.59c
iter:  21 15:29:46  -109.040344c  -6.93  -5.74c
iter:  22 15:29:46  -109.040344c  -7.36  -5.96c
iter:  23 15:29:47  -109.040344c  -7.66c -6.03c

Converged after 23 iterations.

Dipole moment: (-1.029447, 0.445209, -0.170315) |e|*Ang

Energy contributions relative to reference atoms: (reference = -10838.958469)

Kinetic:       +108.873532
Potential:     -121.498203
External:        -0.004452
XC:             -98.884426
Entropy (-ST):   +0.000000
Local:           +2.473205
--------------------------
Free energy:   -109.040344
Extrapolated:  -109.040344

 Band  Eigenvalues  Occupancy
    0    -27.25055    2.00000
    1    -25.15942    2.00000
    2    -22.92726    2.00000
    3    -20.01028    2.00000
    4    -17.55523    2.00000
    5    -17.22608    2.00000
    6    -14.70698    2.00000
    7    -14.23514    2.00000
    8    -13.40550    2.00000
    9    -12.64568    2.00000
   10    -11.84716    2.00000
   11    -11.16468    2.00000
   12    -11.08543    2.00000
   13    -10.42129    2.00000
   14    -10.08684    2.00000
   15     -9.94932    2.00000
   16     -9.57815    2.00000
   17     -8.98285    2.00000
   18     -8.45106    2.00000
   19     -8.36812    2.00000
   20     -8.26753    2.00000
   21     -7.39719    2.00000
   22     -7.16467    2.00000
   23     -5.93130    2.00000
   24     -1.16593    0.00000
   25     -0.73132    0.00000
   26     -0.14613    0.00000
   27     -0.02410    0.00000
   28      0.15141    0.00000
   29      0.66076    0.00000
   30      0.82300    0.00000
   31      0.93920    0.00000
   32      1.01991    0.00000

Fermi level: -3.54862

Gap: 4.765 eV
Transition (v -> c):
  (s=0, k=0, n=23, [0.00, 0.00, 0.00]) -> (s=0, k=0, n=24, [0.00, 0.00, 0.00])
Input parameters:
  external: {direction: [0. 0. 1.],
             name: ConstantElectricField,
             strength: 0.01}

Initialize ...

species:
  N:
    name: Nitrogen
    id: f7500608b86eaa90eef8b1d9a670dc53
    Z: 7.0
    valence: 5
    core: 2
    charge: 0.0
    file: /home/fr/fr_fr/fr_ez1021/source/gpaw-setups/gpaw-setups-0.9.20000/N.PBE.gz
    compensation charges: {type: gauss,
                           rc: 0.18,
                           lmax: 2}
    cutoffs: {filter: 1.11,
              core: 0.96}
    valence states:
      #              energy  rcut
      - 2s(2.00)   -18.583   0.603
      - 2p(3.00)    -7.089   0.529
      -  s           8.629   0.603
      -  p          20.123   0.529
      -  d           0.000   0.577
  
    # Using partial waves for N as LCAO basis

  C:
    name: Carbon
    id: 4aa54d4b901d75f77cc0ea3eec22967b
    Z: 6.0
    valence: 4
    core: 2
    charge: 0.0
    file: /home/fr/fr_fr/fr_ez1021/source/gpaw-setups/gpaw-setups-0.9.20000/C.PBE.gz
    compensation charges: {type: gauss,
                           rc: 0.20,
                           lmax: 2}
    cutoffs: {filter: 1.14,
              core: 1.14}
    valence states:
      #              energy  rcut
      - 2s(2.00)   -13.751   0.635
      - 2p(2.00)    -5.284   0.635
      -  s          13.461   0.635
      -  p          21.927   0.635
      -  d           0.000   0.635
  
    # Using partial waves for C as LCAO basis

  O:
    name: Oxygen
    id: 32ecd46bf208036f09c70b0ec9a88b78
    Z: 8.0
    valence: 6
    core: 2
    charge: 0.0
    file: /home/fr/fr_fr/fr_ez1021/source/gpaw-setups/gpaw-setups-0.9.20000/O.PBE.gz
    compensation charges: {type: gauss,
                           rc: 0.21,
                           lmax: 2}
    cutoffs: {filter: 1.17,
              core: 0.83}
    valence states:
      #              energy  rcut
      - 2s(2.00)   -23.961   0.688
      - 2p(4.00)    -9.029   0.598
      -  s           3.251   0.688
      -  p          18.182   0.598
      -  d           0.000   0.619
  
    # Using partial waves for O as LCAO basis

  H:
    name: Hydrogen
    id: d65de229564ff8ea4db303e23b6d1ecf
    Z: 1.0
    valence: 1
    core: 0
    charge: 0.0
    file: /home/fr/fr_fr/fr_ez1021/source/gpaw-setups/gpaw-setups-0.9.20000/H.PBE.gz
    compensation charges: {type: gauss,
                           rc: 0.15,
                           lmax: 2}
    cutoffs: {filter: 0.85,
              core: 0.53}
    valence states:
      #              energy  rcut
      - 1s(1.00)    -6.494   0.476
      -  s          20.717   0.476
      -  p           0.000   0.476
  
    # Using partial waves for H as LCAO basis

Reference energy: -10838.958469  # eV

Spin-paired calculation

Convergence criteria:
 Maximum [total energy] change in last 3 cyles: 0.0005 eV / valence electron
 Maximum integral of absolute [dens]ity change: 0.0001 electrons / valence electron
 Maximum integral of absolute [eigenst]ate change: 4e-08 eV^2 / valence electron
 Maximum number of scf [iter]ations: 333
 (Square brackets indicate name in SCF output, whereas a 'c' in
 the SCF output indicates the quantity has converged.)

Symmetries present (total): 1

  ( 1  0  0)
  ( 0  1  0)
  ( 0  0  1)

1 k-point (Gamma)
1 k-point in the irreducible part of the Brillouin zone
       k-points in crystal coordinates                weights
   0:     0.00000000    0.00000000    0.00000000          1/1

Wave functions: Uniform real-space grid
  Kinetic energy operator: 6*3+1=19 point O(h^6) finite-difference Laplacian
  ScaLapack parameters: grid=1x1, blocksize=None
  Wavefunction extrapolation:
    Improved wavefunction reuse through dual PAW basis 

Occupation numbers: # Zero width 

Eigensolver
   Davidson(niter=2) 

Densities:
  Coarse grid: 68*64*60 grid
  Fine grid: 136*128*120 grid
  Total Charge: 0.000000 

Density mixing:
  Method: separate
  Backend: pulay
  Linear mixing parameter: 0.25
  old densities: 3
  Damping of long wavelength oscillations: 1  # (no daming) 

Hamiltonian:
  XC and Coulomb potentials evaluated on a 136*128*120 grid
  Using the PBE Exchange-Correlation functional
  External potential:
    Constant electric field: (0.000, 0.000, 0.010) V/Ang
  Interpolation: tri-quintic (5. degree polynomial)
  Poisson solver: FastPoissonSolver using
    Stencil: 6*3+1=19 point O(h^6) finite-difference Laplacian
    FFT axes: []
    FST axes: [2, 1, 0]
 

XC parameters: PBE with 2 nearest neighbor stencil

Memory estimate:
  Process memory now: 247.86 MiB
  Calculator: 14.11 MiB
    Density: 4.17 MiB
      Arrays: 3.03 MiB
      Localized functions: 0.48 MiB
      Mixer: 0.66 MiB
    Hamiltonian: 2.02 MiB
      Arrays: 1.98 MiB
      XC: 0.00 MiB
      Poisson: 0.00 MiB
      vbar: 0.04 MiB
    Wavefunctions: 7.93 MiB
      Arrays psit_nG: 3.62 MiB
      Eigensolver: 4.25 MiB
      Projections: 0.00 MiB
      Projectors: 0.05 MiB

Total number of cores used: 16
Domain decomposition: 4 x 2 x 2

Number of atoms: 19
Number of atomic orbitals: 43
Number of bands in calculation: 33
Number of valence electrons: 48
Bands to converge: occupied

... initialized

Initializing position-dependent things.

Density initialized from atomic densities
Creating initial wave functions:
  33 bands from LCAO basis set

         .--------------------------------.  
        /|                                |  
       / |                                |  
      /  |                                |  
     /   |                                |  
    /    |                                |  
   /     |                                |  
  /      |                                |  
 *       |                                |  
 |       |        H                       |  
 |       |     H C   H  H                 |  
 |       |      H   C HC   O              |  
 |       |            N   C               |  
 |       |       H CH     H O             |  
 |       |       H   H                    |  
 |       .--------------------------------.  
 |      /                                /   
 |     /                                /    
 |    /                                /     
 |   /                                /      
 |  /                                /       
 | /                                /        
 |/                                /         
 *--------------------------------*          

Positions:
   0 N      6.788003    7.783080    4.730524    ( 0.0000,  0.0000,  0.0000)
   1 C      7.245087    7.140712    5.979204    ( 0.0000,  0.0000,  0.0000)
   2 C      8.664052    6.559061    5.757739    ( 0.0000,  0.0000,  0.0000)
   3 O      9.211172    6.926698    4.584999    ( 0.0000,  0.0000,  0.0000)
   4 H      6.288263    8.650847    4.910889    ( 0.0000,  0.0000,  0.0000)
   5 H      6.159805    7.170965    4.208519    ( 0.0000,  0.0000,  0.0000)
   6 H      7.386608    7.939165    6.725460    ( 0.0000,  0.0000,  0.0000)
   7 C      6.299674    6.082962    6.592938    ( 0.0000,  0.0000,  0.0000)
   8 C      5.004336    6.721614    7.102103    ( 0.0000,  0.0000,  0.0000)
   9 C      6.020938    4.923903    5.628084    ( 0.0000,  0.0000,  0.0000)
  10 H      6.853560    5.674803    7.451704    ( 0.0000,  0.0000,  0.0000)
  11 H      5.206975    7.516812    7.833592    ( 0.0000,  0.0000,  0.0000)
  12 H      4.366608    5.973513    7.591648    ( 0.0000,  0.0000,  0.0000)
  13 H      4.416507    7.161364    6.281697    ( 0.0000,  0.0000,  0.0000)
  14 H      6.949398    4.453041    5.278907    ( 0.0000,  0.0000,  0.0000)
  15 H      5.443671    5.243410    4.745378    ( 0.0000,  0.0000,  0.0000)
  16 H      5.422905    4.149153    6.125272    ( 0.0000,  0.0000,  0.0000)
  17 O      9.233393    5.864501    6.570623    ( 0.0000,  0.0000,  0.0000)
  18 H      8.492572    7.483767    4.166409    ( 0.0000,  0.0000,  0.0000)

Unit cell:
           periodic     x           y           z      points  spacing
  1. axis:    no    13.600000    0.000000    0.000000    68     0.2000
  2. axis:    no     0.000000   12.800000    0.000000    64     0.2000
  3. axis:    no     0.000000    0.000000   12.000000    60     0.2000

  Lengths:  13.600000  12.800000  12.000000
  Angles:   90.000000  90.000000  90.000000

Effective grid spacing dv^(1/3) = 0.2000

     iter     time        total  log10-change:
                         energy   eigst   dens
iter:   1 15:29:48  -118.221663
iter:   2 15:29:48  -111.273376   +0.64  -0.69
iter:   3 15:29:48  -109.308428   +0.69  -0.89
iter:   4 15:29:48  -109.062130   -0.27  -1.18
iter:   5 15:29:49  -109.037362   -0.65  -1.50
iter:   6 15:29:49  -109.035329   -1.02  -2.20
iter:   7 15:29:49  -109.035465c  -1.77  -2.38
iter:   8 15:29:50  -109.034275c  -2.27  -2.49
iter:   9 15:29:50  -109.034431c  -2.43  -2.78
iter:  10 15:29:50  -109.034238c  -3.03  -2.98
iter:  11 15:29:50  -109.034259c  -3.48  -3.39
iter:  12 15:29:51  -109.034265c  -3.83  -3.56
iter:  13 15:29:51  -109.034273c  -4.31  -3.96
iter:  14 15:29:51  -109.034275c  -4.70  -4.10c
iter:  15 15:29:52  -109.034276c  -5.06  -4.48c
iter:  16 15:29:52  -109.034277c  -5.33  -4.64c
iter:  17 15:29:52  -109.034277c  -5.69  -5.01c
iter:  18 15:29:53  -109.034278c  -5.96  -5.30c
iter:  19 15:29:53  -109.034278c  -6.38  -5.56c
iter:  20 15:29:53  -109.034278c  -6.63  -5.62c
iter:  21 15:29:53  -109.034278c  -6.94  -5.72c
iter:  22 15:29:54  -109.034278c  -7.35  -5.98c
iter:  23 15:29:54  -109.034278c  -7.66c -5.97c

Converged after 23 iterations.

Dipole moment: (-1.029751, 0.436391, -0.161242) |e|*Ang

Energy contributions relative to reference atoms: (reference = -10838.958469)

Kinetic:       +108.879773
Potential:     -121.505187
External:        +0.001612
XC:             -98.883641
Entropy (-ST):   +0.000000
Local:           +2.473165
--------------------------
Free energy:   -109.034278
Extrapolated:  -109.034278

 Band  Eigenvalues  Occupancy
    0    -27.25783    2.00000
    1    -25.16306    2.00000
    2    -22.94000    2.00000
    3    -20.00838    2.00000
    4    -17.55951    2.00000
    5    -17.22020    2.00000
    6    -14.71056    2.00000
    7    -14.23980    2.00000
    8    -13.41681    2.00000
    9    -12.65073    2.00000
   10    -11.85159    2.00000
   11    -11.16891    2.00000
   12    -11.08269    2.00000
   13    -10.42298    2.00000
   14    -10.08583    2.00000
   15     -9.94963    2.00000
   16     -9.57240    2.00000
   17     -8.98298    2.00000
   18     -8.45069    2.00000
   19     -8.36537    2.00000
   20     -8.26501    2.00000
   21     -7.40219    2.00000
   22     -7.17567    2.00000
   23     -5.93481    2.00000
   24     -1.17806    0.00000
   25     -0.74031    0.00000
   26     -0.14916    0.00000
   27     -0.02026    0.00000
   28      0.14050    0.00000
   29      0.66790    0.00000
   30      0.81947    0.00000
   31      0.95329    0.00000
   32      1.01422    0.00000

Fermi level: -3.55644

Gap: 4.757 eV
Transition (v -> c):
  (s=0, k=0, n=23, [0.00, 0.00, 0.00]) -> (s=0, k=0, n=24, [0.00, 0.00, 0.00])
Input parameters:
  external: None

Timing:                              incl.     excl.
-----------------------------------------------------------
Hamiltonian:                         0.604     0.072   0.2% |
 Atomic:                             0.137     0.003   0.0% |
  XC Correction:                     0.134     0.134   0.4% |
 Calculate atomic Hamiltonians:      0.007     0.007   0.0% |
 Communicate:                        0.070     0.070   0.2% |
 Hartree integrate/restrict:         0.012     0.012   0.0% |
 Initialize Hamiltonian:             0.001     0.001   0.0% |
 Poisson:                            0.160     0.005   0.0% |
  Communicate from 1D:               0.019     0.019   0.1% |
  Communicate from 2D:               0.039     0.039   0.1% |
  Communicate to 1D:                 0.039     0.039   0.1% |
  Communicate to 2D:                 0.022     0.022   0.1% |
  FFT 1D:                            0.017     0.017   0.1% |
  FFT 2D:                            0.021     0.021   0.1% |
 XC 3D grid:                         0.143     0.143   0.5% |
 vbar:                               0.002     0.002   0.0% |
LCAO initialization:                 1.071     0.842   2.8% ||
 LCAO eigensolver:                   0.073     0.001   0.0% |
  Calculate projections:             0.000     0.000   0.0% |
  DenseAtomicCorrection:             0.000     0.000   0.0% |
  Distribute overlap matrix:         0.065     0.065   0.2% |
  Orbital Layouts:                   0.003     0.003   0.0% |
  Potential matrix:                  0.005     0.005   0.0% |
 LCAO to grid:                       0.027     0.027   0.1% |
 Set positions (LCAO WFS):           0.129     0.094   0.3% |
  Basic WFS set positions:           0.003     0.003   0.0% |
  Basis functions set positions:     0.000     0.000   0.0% |
  P tci:                             0.001     0.001   0.0% |
  ST tci:                            0.010     0.010   0.0% |
  mktci:                             0.020     0.020   0.1% |
SCF-cycle:                          26.658     0.070   0.2% |
 Davidson:                          14.186     5.092  17.0% |------|
  Apply hamiltonian:                 1.189     1.189   4.0% |-|
  Subspace diag:                     2.008     0.011   0.0% |
   calc_h_matrix:                    1.359     0.226   0.8% |
    Apply hamiltonian:               1.134     1.134   3.8% |-|
   diagonalize:                      0.104     0.104   0.3% |
   rotate_psi:                       0.533     0.533   1.8% ||
  calc. matrices:                    4.710     1.874   6.3% |--|
   Apply hamiltonian:                2.836     2.836   9.5% |---|
  diagonalize:                       0.160     0.160   0.5% |
  rotate_psi:                        1.028     1.028   3.4% ||
 Density:                            0.512     0.002   0.0% |
  Atomic density matrices:           0.122     0.122   0.4% |
  Mix:                               0.293     0.293   1.0% |
  Multipole moments:                 0.018     0.018   0.1% |
  Pseudo density:                    0.078     0.077   0.3% |
   Symmetrize density:               0.001     0.001   0.0% |
 Hamiltonian:                       11.722     0.057   0.2% |
  Atomic:                            3.010     0.052   0.2% |
   XC Correction:                    2.959     2.959   9.9% |---|
  Calculate atomic Hamiltonians:     0.143     0.143   0.5% |
  Communicate:                       1.529     1.529   5.1% |-|
  Hartree integrate/restrict:        0.240     0.240   0.8% |
  Poisson:                           3.508     0.107   0.4% |
   Communicate from 1D:              0.404     0.404   1.4% ||
   Communicate from 2D:              0.857     0.857   2.9% ||
   Communicate to 1D:                0.834     0.834   2.8% ||
   Communicate to 2D:                0.443     0.443   1.5% ||
   FFT 1D:                           0.393     0.393   1.3% ||
   FFT 2D:                           0.469     0.469   1.6% ||
  XC 3D grid:                        3.194     3.194  10.7% |---|
  vbar:                              0.041     0.041   0.1% |
 Orthonormalize:                     0.168     0.001   0.0% |
  calc_s_matrix:                     0.006     0.006   0.0% |
  inverse-cholesky:                  0.147     0.147   0.5% |
  projections:                       0.000     0.000   0.0% |
  rotate_psi_s:                      0.014     0.014   0.0% |
Set symmetry:                        0.004     0.004   0.0% |
Other:                               1.527     1.527   5.1% |-|
-----------------------------------------------------------
Total:                                        29.864 100.0%

Memory usage: 248.55 MiB
Date: Fri Oct  6 15:29:54 2023
