
  ___ ___ ___ _ _ _  
 |   |   |_  | | | | 
 | | | | | . | | | | 
 |__ |  _|___|_____|  23.9.2b1
 |___|_|             

User:   fr_ez1021@n1637
Date:   Fri Oct  6 13:05:50 2023
Arch:   x86_64
Pid:    788894
CWD:    /lustre/home/fr/fr_fr/fr_ez1021/sims/amino_acids_publish/scripts
Python: 3.8.3
gpaw:   /home/fr/fr_fr/fr_ez1021/source/origin/gpaw/gpaw (f94a1458af)
_gpaw:  /home/fr/fr_fr/fr_ez1021/source/origin/gpaw/build/lib.linux-x86_64-3.8/
        _gpaw.cpython-38-x86_64-linux-gnu.so (d6c5f22bb1)
ase:    /home/fr/fr_fr/fr_ez1021/source/origin/ase/ase (version 3.23.0b1-4bd916e410)
numpy:  /opt/bwhpc/common/numlib/python_numpy/1.19.0_python-3.8.3/lib/python3.8/site-packages/numpy-1.19.0-py3.8-linux-x86_64.egg/numpy (version 1.19.0)
scipy:  /opt/bwhpc/common/numlib/python_scipy/1.5.0_numpy-1.19.0_python-3.8.3/lib/python3.8/site-packages/scipy-1.5.0-py3.8-linux-x86_64.egg/scipy (version 1.5.0)
libxc:  5.1.7
units:  Angstrom and eV
cores: 16
OpenMP: False
OMP_NUM_THREADS: 1

Input parameters:
  mode: fd
  xc: PBE

Implicit solvation parameters:
Cavity:  EffectivePotentialCavity
  Surface Calculator: GradientSurface with 3 nn
  Volume Calculator: KB51Volume
    compressibility: 72.57860092224
    temperature:     298.15
  EffectivePotentialCavity
    Potential: Power12Potential
      u0: 0.18eV
      pbc_cutoff: 1e-06
      tiny: 1e-10
    temperature: 298.15K
Dielectric:
  Type: LinearDielectric
  Solvent dielectric constant: 1.77
Interaction: SurfaceInteraction
  subscript: surf
  Surface_tension: 0.0011484376791625194 eV/(Angstrom^2)

System changes: positions, numbers, cell, pbc, initial_charges, initial_magmoms 

Initialize ...

species:
  N:
    name: Nitrogen
    id: f7500608b86eaa90eef8b1d9a670dc53
    Z: 7.0
    valence: 5
    core: 2
    charge: 0.0
    file: /home/fr/fr_fr/fr_ez1021/source/gpaw-setups/gpaw-setups-0.9.20000/N.PBE.gz
    compensation charges: {type: gauss,
                           rc: 0.18,
                           lmax: 2}
    cutoffs: {filter: 1.11,
              core: 0.96}
    valence states:
      #              energy  rcut
      - 2s(2.00)   -18.583   0.603
      - 2p(3.00)    -7.089   0.529
      -  s           8.629   0.603
      -  p          20.123   0.529
      -  d           0.000   0.577
  
    # Using partial waves for N as LCAO basis

  C:
    name: Carbon
    id: 4aa54d4b901d75f77cc0ea3eec22967b
    Z: 6.0
    valence: 4
    core: 2
    charge: 0.0
    file: /home/fr/fr_fr/fr_ez1021/source/gpaw-setups/gpaw-setups-0.9.20000/C.PBE.gz
    compensation charges: {type: gauss,
                           rc: 0.20,
                           lmax: 2}
    cutoffs: {filter: 1.14,
              core: 1.14}
    valence states:
      #              energy  rcut
      - 2s(2.00)   -13.751   0.635
      - 2p(2.00)    -5.284   0.635
      -  s          13.461   0.635
      -  p          21.927   0.635
      -  d           0.000   0.635
  
    # Using partial waves for C as LCAO basis

  O:
    name: Oxygen
    id: 32ecd46bf208036f09c70b0ec9a88b78
    Z: 8.0
    valence: 6
    core: 2
    charge: 0.0
    file: /home/fr/fr_fr/fr_ez1021/source/gpaw-setups/gpaw-setups-0.9.20000/O.PBE.gz
    compensation charges: {type: gauss,
                           rc: 0.21,
                           lmax: 2}
    cutoffs: {filter: 1.17,
              core: 0.83}
    valence states:
      #              energy  rcut
      - 2s(2.00)   -23.961   0.688
      - 2p(4.00)    -9.029   0.598
      -  s           3.251   0.688
      -  p          18.182   0.598
      -  d           0.000   0.619
  
    # Using partial waves for O as LCAO basis

  H:
    name: Hydrogen
    id: d65de229564ff8ea4db303e23b6d1ecf
    Z: 1.0
    valence: 1
    core: 0
    charge: 0.0
    file: /home/fr/fr_fr/fr_ez1021/source/gpaw-setups/gpaw-setups-0.9.20000/H.PBE.gz
    compensation charges: {type: gauss,
                           rc: 0.15,
                           lmax: 2}
    cutoffs: {filter: 0.85,
              core: 0.53}
    valence states:
      #              energy  rcut
      - 1s(1.00)    -6.494   0.476
      -  s          20.717   0.476
      -  p           0.000   0.476
  
    # Using partial waves for H as LCAO basis

Reference energy: -10838.958469  # eV

Spin-paired calculation

Convergence criteria:
 Maximum [total energy] change in last 3 cyles: 0.0005 eV / valence electron
 Maximum integral of absolute [dens]ity change: 0.0001 electrons / valence electron
 Maximum integral of absolute [eigenst]ate change: 4e-08 eV^2 / valence electron
 Maximum number of scf [iter]ations: 333
 (Square brackets indicate name in SCF output, whereas a 'c' in
 the SCF output indicates the quantity has converged.)

Symmetries present (total): 1

  ( 1  0  0)
  ( 0  1  0)
  ( 0  0  1)

1 k-point (Gamma)
1 k-point in the irreducible part of the Brillouin zone
       k-points in crystal coordinates                weights
   0:     0.00000000    0.00000000    0.00000000          1/1

Wave functions: Uniform real-space grid
  Kinetic energy operator: 6*3+1=19 point O(h^6) finite-difference Laplacian
  ScaLapack parameters: grid=1x1, blocksize=None
  Wavefunction extrapolation:
    Improved wavefunction reuse through dual PAW basis 

Occupation numbers: # Zero width 

Eigensolver
   Davidson(niter=2) 

Densities:
  Coarse grid: 68*64*60 grid
  Fine grid: 136*128*120 grid
  Total Charge: 0.000000 

Density mixing:
  Method: separate
  Backend: pulay
  Linear mixing parameter: 0.25
  old densities: 3
  Damping of long wavelength oscillations: 1  # (no daming) 

Hamiltonian:
  XC and Coulomb potentials evaluated on a 136*128*120 grid
  Using the PBE Exchange-Correlation functional
  Interpolation: tri-quintic (5. degree polynomial)
  Poisson solver: Jacobi weighted FD solver with dielectric and 4 multi-grid levels
    Coarsest grid: 17 x 16 x 15 points
    Stencil: Weighted Finite Difference Operator
      6*3+1=19 point O(h^6) finite-difference Laplacian
      Finite-difference x-derivative with O(h^6) error (6 points)
      Finite-difference y-derivative with O(h^6) error (6 points)
      Finite-difference z-derivative with O(h^6) error (6 points)
    Max iterations: 1000
    Tolerance: 2.000000e-10

  Solvation:
    Cavity:  EffectivePotentialCavity
      Surface Calculator: GradientSurface with 3 nn
      Volume Calculator: KB51Volume
        compressibility: 72.57860092224
        temperature:     298.15
      EffectivePotentialCavity
        Potential: Power12Potential
          u0: 0.18eV
          pbc_cutoff: 1e-06
          tiny: 1e-10
        temperature: 298.15K    Dielectric:
      Type: LinearDielectric
      Solvent dielectric constant: 1.77    Interaction: SurfaceInteraction
      subscript: surf
      Surface_tension: 0.0011484376791625194 eV/(Angstrom^2)
XC parameters: PBE with 2 nearest neighbor stencil

Memory estimate:
  Process memory now: 163.04 MiB
  Calculator: 41.65 MiB
    Density: 4.17 MiB
      Arrays: 3.03 MiB
      Localized functions: 0.48 MiB
      Mixer: 0.66 MiB
    Hamiltonian: 29.55 MiB
      Arrays: 1.98 MiB
      XC: 0.00 MiB
      Poisson: 2.27 MiB
      vbar: 0.04 MiB
      Solvation: 25.27 MiB
    Wavefunctions: 7.93 MiB
      Arrays psit_nG: 3.62 MiB
      Eigensolver: 4.25 MiB
      Projections: 0.00 MiB
      Projectors: 0.05 MiB

Total number of cores used: 16
Domain decomposition: 4 x 2 x 2

Number of atoms: 19
Number of atomic orbitals: 43
Number of bands in calculation: 33
Number of valence electrons: 48
Bands to converge: occupied

... initialized

Initializing position-dependent things.

Solvation position-dependent initialization:
  Atomic radii for Power12Potential:
    Type    Radius   No. of atoms
       H     1.090     11
       O     1.520     2
       N     1.550     1
       C     1.700     5

Density initialized from atomic densities
Creating initial wave functions:
  33 bands from LCAO basis set

         .--------------------------------.  
        /|                                |  
       / |                                |  
      /  |                                |  
     /   |                                |  
    /    |                                |  
   /     |                                |  
  /      |                                |  
 *       |                                |  
 |       |        H                       |  
 |       |     H C   H  H                 |  
 |       |      H   C HC   O              |  
 |       |            N   C               |  
 |       |       H CH     H O             |  
 |       |       H   H                    |  
 |       .--------------------------------.  
 |      /                                /   
 |     /                                /    
 |    /                                /     
 |   /                                /      
 |  /                                /       
 | /                                /        
 |/                                /         
 *--------------------------------*          

Positions:
   0 N      6.788003    7.783080    4.730524    ( 0.0000,  0.0000,  0.0000)
   1 C      7.245087    7.140712    5.979204    ( 0.0000,  0.0000,  0.0000)
   2 C      8.664052    6.559061    5.757739    ( 0.0000,  0.0000,  0.0000)
   3 O      9.211172    6.926698    4.584999    ( 0.0000,  0.0000,  0.0000)
   4 H      6.288263    8.650847    4.910889    ( 0.0000,  0.0000,  0.0000)
   5 H      6.159805    7.170965    4.208519    ( 0.0000,  0.0000,  0.0000)
   6 H      7.386608    7.939165    6.725460    ( 0.0000,  0.0000,  0.0000)
   7 C      6.299674    6.082962    6.592938    ( 0.0000,  0.0000,  0.0000)
   8 C      5.004336    6.721614    7.102103    ( 0.0000,  0.0000,  0.0000)
   9 C      6.020938    4.923903    5.628084    ( 0.0000,  0.0000,  0.0000)
  10 H      6.853560    5.674803    7.451704    ( 0.0000,  0.0000,  0.0000)
  11 H      5.206975    7.516812    7.833592    ( 0.0000,  0.0000,  0.0000)
  12 H      4.366608    5.973513    7.591648    ( 0.0000,  0.0000,  0.0000)
  13 H      4.416507    7.161364    6.281697    ( 0.0000,  0.0000,  0.0000)
  14 H      6.949398    4.453041    5.278907    ( 0.0000,  0.0000,  0.0000)
  15 H      5.443671    5.243410    4.745378    ( 0.0000,  0.0000,  0.0000)
  16 H      5.422905    4.149153    6.125272    ( 0.0000,  0.0000,  0.0000)
  17 O      9.233393    5.864501    6.570623    ( 0.0000,  0.0000,  0.0000)
  18 H      8.492572    7.483767    4.166409    ( 0.0000,  0.0000,  0.0000)

Unit cell:
           periodic     x           y           z      points  spacing
  1. axis:    no    13.600000    0.000000    0.000000    68     0.2000
  2. axis:    no     0.000000   12.800000    0.000000    64     0.2000
  3. axis:    no     0.000000    0.000000   12.000000    60     0.2000

  Lengths:  13.600000  12.800000  12.000000
  Angles:   90.000000  90.000000  90.000000

Effective grid spacing dv^(1/3) = 0.2000

     iter     time        total  log10-change:
                         energy   eigst   dens
iter:   1 13:05:53  -118.061660
iter:   2 13:05:54  -111.179947   +0.64  -0.69
iter:   3 13:05:56  -109.236965   +0.69  -0.89
iter:   4 13:05:57  -109.002609   -0.28  -1.18
iter:   5 13:05:58  -108.981573   -0.66  -1.51
iter:   6 13:05:58  -108.979636c  -1.02  -2.19
iter:   7 13:05:59  -108.980281c  -1.76  -2.36
iter:   8 13:05:59  -108.979227c  -2.24  -2.47
iter:   9 13:06:00  -108.978876c  -2.37  -2.79
iter:  10 13:06:00  -108.979034c  -3.01  -2.94
iter:  11 13:06:01  -108.978928c  -3.45  -3.37
iter:  12 13:06:01  -108.978808c  -3.83  -3.55
iter:  13 13:06:02  -108.978891c  -4.30  -3.93
iter:  14 13:06:02  -108.978872c  -4.69  -4.08c
iter:  15 13:06:02  -108.978696c  -5.03  -4.36c
iter:  16 13:06:03  -108.978686c  -5.35  -4.59c
iter:  17 13:06:03  -108.978745c  -5.76  -4.82c
iter:  18 13:06:03  -108.978707c  -6.17  -5.26c
iter:  19 13:06:04  -108.978787c  -6.38  -5.40c
iter:  20 13:06:04  -108.978824c  -6.72  -5.50c
iter:  21 13:06:04  -108.978825c  -7.01  -5.60c
iter:  22 13:06:05  -108.978786c  -7.32  -5.77c
iter:  23 13:06:05  -108.978762c  -7.73c -5.94c

Converged after 23 iterations.

Dipole moment: (-1.116562, 0.485147, -0.192008) |e|*Ang

Energy contributions relative to reference atoms: (reference = -10838.958469)

Kinetic:       +108.682224
Potential:     -121.438603
External:        +0.000000
XC:             -98.892019
Entropy (-ST):   +0.000000
Local:           +2.475153
Interactions  
 surf:           +0.194483
--------------------------
Free energy:   -108.978762
Extrapolated:  -108.978762

Solvation cavity surface area: 169.34609
Solvation cavity volume: 176.66628
 Band  Eigenvalues  Occupancy
    0    -27.32020    2.00000
    1    -25.25175    2.00000
    2    -22.77435    2.00000
    3    -19.87434    2.00000
    4    -17.45547    2.00000
    5    -17.07838    2.00000
    6    -14.69638    2.00000
    7    -14.18071    2.00000
    8    -13.26929    2.00000
    9    -12.55182    2.00000
   10    -11.74047    2.00000
   11    -11.10391    2.00000
   12    -10.97255    2.00000
   13    -10.49006    2.00000
   14    -10.03178    2.00000
   15     -9.91319    2.00000
   16     -9.42265    2.00000
   17     -8.90754    2.00000
   18     -8.34810    2.00000
   19     -8.25787    2.00000
   20     -8.16282    2.00000
   21     -7.49447    2.00000
   22     -7.09094    2.00000
   23     -5.97546    2.00000
   24     -1.10847    0.00000
   25     -0.67198    0.00000
   26     -0.05300    0.00000
   27      0.08365    0.00000
   28      0.18493    0.00000
   29      0.74377    0.00000
   30      0.86324    0.00000
   31      0.97753    0.00000
   32      1.06817    0.00000

Fermi level: -3.54196

Gap: 4.867 eV
Transition (v -> c):
  (s=0, k=0, n=23, [0.00, 0.00, 0.00]) -> (s=0, k=0, n=24, [0.00, 0.00, 0.00])
Input parameters:
  external: {direction: [1. 0. 0.],
             name: ConstantElectricField,
             strength: 0.01}

Initialize ...

species:
  N:
    name: Nitrogen
    id: f7500608b86eaa90eef8b1d9a670dc53
    Z: 7.0
    valence: 5
    core: 2
    charge: 0.0
    file: /home/fr/fr_fr/fr_ez1021/source/gpaw-setups/gpaw-setups-0.9.20000/N.PBE.gz
    compensation charges: {type: gauss,
                           rc: 0.18,
                           lmax: 2}
    cutoffs: {filter: 1.11,
              core: 0.96}
    valence states:
      #              energy  rcut
      - 2s(2.00)   -18.583   0.603
      - 2p(3.00)    -7.089   0.529
      -  s           8.629   0.603
      -  p          20.123   0.529
      -  d           0.000   0.577
  
    # Using partial waves for N as LCAO basis

  C:
    name: Carbon
    id: 4aa54d4b901d75f77cc0ea3eec22967b
    Z: 6.0
    valence: 4
    core: 2
    charge: 0.0
    file: /home/fr/fr_fr/fr_ez1021/source/gpaw-setups/gpaw-setups-0.9.20000/C.PBE.gz
    compensation charges: {type: gauss,
                           rc: 0.20,
                           lmax: 2}
    cutoffs: {filter: 1.14,
              core: 1.14}
    valence states:
      #              energy  rcut
      - 2s(2.00)   -13.751   0.635
      - 2p(2.00)    -5.284   0.635
      -  s          13.461   0.635
      -  p          21.927   0.635
      -  d           0.000   0.635
  
    # Using partial waves for C as LCAO basis

  O:
    name: Oxygen
    id: 32ecd46bf208036f09c70b0ec9a88b78
    Z: 8.0
    valence: 6
    core: 2
    charge: 0.0
    file: /home/fr/fr_fr/fr_ez1021/source/gpaw-setups/gpaw-setups-0.9.20000/O.PBE.gz
    compensation charges: {type: gauss,
                           rc: 0.21,
                           lmax: 2}
    cutoffs: {filter: 1.17,
              core: 0.83}
    valence states:
      #              energy  rcut
      - 2s(2.00)   -23.961   0.688
      - 2p(4.00)    -9.029   0.598
      -  s           3.251   0.688
      -  p          18.182   0.598
      -  d           0.000   0.619
  
    # Using partial waves for O as LCAO basis

  H:
    name: Hydrogen
    id: d65de229564ff8ea4db303e23b6d1ecf
    Z: 1.0
    valence: 1
    core: 0
    charge: 0.0
    file: /home/fr/fr_fr/fr_ez1021/source/gpaw-setups/gpaw-setups-0.9.20000/H.PBE.gz
    compensation charges: {type: gauss,
                           rc: 0.15,
                           lmax: 2}
    cutoffs: {filter: 0.85,
              core: 0.53}
    valence states:
      #              energy  rcut
      - 1s(1.00)    -6.494   0.476
      -  s          20.717   0.476
      -  p           0.000   0.476
  
    # Using partial waves for H as LCAO basis

Reference energy: -10838.958469  # eV

Spin-paired calculation

Convergence criteria:
 Maximum [total energy] change in last 3 cyles: 0.0005 eV / valence electron
 Maximum integral of absolute [dens]ity change: 0.0001 electrons / valence electron
 Maximum integral of absolute [eigenst]ate change: 4e-08 eV^2 / valence electron
 Maximum number of scf [iter]ations: 333
 (Square brackets indicate name in SCF output, whereas a 'c' in
 the SCF output indicates the quantity has converged.)

Symmetries present (total): 1

  ( 1  0  0)
  ( 0  1  0)
  ( 0  0  1)

1 k-point (Gamma)
1 k-point in the irreducible part of the Brillouin zone
       k-points in crystal coordinates                weights
   0:     0.00000000    0.00000000    0.00000000          1/1

Wave functions: Uniform real-space grid
  Kinetic energy operator: 6*3+1=19 point O(h^6) finite-difference Laplacian
  ScaLapack parameters: grid=1x1, blocksize=None
  Wavefunction extrapolation:
    Improved wavefunction reuse through dual PAW basis 

Occupation numbers: # Zero width 

Eigensolver
   Davidson(niter=2) 

Densities:
  Coarse grid: 68*64*60 grid
  Fine grid: 136*128*120 grid
  Total Charge: 0.000000 

Density mixing:
  Method: separate
  Backend: pulay
  Linear mixing parameter: 0.25
  old densities: 3
  Damping of long wavelength oscillations: 1  # (no daming) 

Hamiltonian:
  XC and Coulomb potentials evaluated on a 136*128*120 grid
  Using the PBE Exchange-Correlation functional
  External potential:
    Constant electric field: (0.010, 0.000, 0.000) V/Ang
  Interpolation: tri-quintic (5. degree polynomial)
  Poisson solver: Jacobi weighted FD solver with dielectric and 4 multi-grid levels
    Coarsest grid: 17 x 16 x 15 points
    Stencil: Weighted Finite Difference Operator
      6*3+1=19 point O(h^6) finite-difference Laplacian
      Finite-difference x-derivative with O(h^6) error (6 points)
      Finite-difference y-derivative with O(h^6) error (6 points)
      Finite-difference z-derivative with O(h^6) error (6 points)
    Max iterations: 1000
    Tolerance: 2.000000e-10

  Solvation:
    Cavity:  EffectivePotentialCavity
      Surface Calculator: GradientSurface with 3 nn
      Volume Calculator: KB51Volume
        compressibility: 72.57860092224
        temperature:     298.15
      EffectivePotentialCavity
        Potential: Power12Potential
          u0: 0.18eV
          pbc_cutoff: 1e-06
          tiny: 1e-10
        temperature: 298.15K    Dielectric:
      Type: LinearDielectric
      Solvent dielectric constant: 1.77    Interaction: SurfaceInteraction
      subscript: surf
      Surface_tension: 0.0011484376791625194 eV/(Angstrom^2)
XC parameters: PBE with 2 nearest neighbor stencil

Memory estimate:
  Process memory now: 246.31 MiB
  Calculator: 41.65 MiB
    Density: 4.17 MiB
      Arrays: 3.03 MiB
      Localized functions: 0.48 MiB
      Mixer: 0.66 MiB
    Hamiltonian: 29.55 MiB
      Arrays: 1.98 MiB
      XC: 0.00 MiB
      Poisson: 2.27 MiB
      vbar: 0.04 MiB
      Solvation: 25.27 MiB
    Wavefunctions: 7.93 MiB
      Arrays psit_nG: 3.62 MiB
      Eigensolver: 4.25 MiB
      Projections: 0.00 MiB
      Projectors: 0.05 MiB

Total number of cores used: 16
Domain decomposition: 4 x 2 x 2

Number of atoms: 19
Number of atomic orbitals: 43
Number of bands in calculation: 33
Number of valence electrons: 48
Bands to converge: occupied

... initialized

Initializing position-dependent things.

Solvation position-dependent initialization:
  Atomic radii for Power12Potential:
    Type    Radius   No. of atoms
       H     1.090     11
       O     1.520     2
       N     1.550     1
       C     1.700     5

Density initialized from atomic densities
Creating initial wave functions:
  33 bands from LCAO basis set

         .--------------------------------.  
        /|                                |  
       / |                                |  
      /  |                                |  
     /   |                                |  
    /    |                                |  
   /     |                                |  
  /      |                                |  
 *       |                                |  
 |       |        H                       |  
 |       |     H C   H  H                 |  
 |       |      H   C HC   O              |  
 |       |            N   C               |  
 |       |       H CH     H O             |  
 |       |       H   H                    |  
 |       .--------------------------------.  
 |      /                                /   
 |     /                                /    
 |    /                                /     
 |   /                                /      
 |  /                                /       
 | /                                /        
 |/                                /         
 *--------------------------------*          

Positions:
   0 N      6.788003    7.783080    4.730524    ( 0.0000,  0.0000,  0.0000)
   1 C      7.245087    7.140712    5.979204    ( 0.0000,  0.0000,  0.0000)
   2 C      8.664052    6.559061    5.757739    ( 0.0000,  0.0000,  0.0000)
   3 O      9.211172    6.926698    4.584999    ( 0.0000,  0.0000,  0.0000)
   4 H      6.288263    8.650847    4.910889    ( 0.0000,  0.0000,  0.0000)
   5 H      6.159805    7.170965    4.208519    ( 0.0000,  0.0000,  0.0000)
   6 H      7.386608    7.939165    6.725460    ( 0.0000,  0.0000,  0.0000)
   7 C      6.299674    6.082962    6.592938    ( 0.0000,  0.0000,  0.0000)
   8 C      5.004336    6.721614    7.102103    ( 0.0000,  0.0000,  0.0000)
   9 C      6.020938    4.923903    5.628084    ( 0.0000,  0.0000,  0.0000)
  10 H      6.853560    5.674803    7.451704    ( 0.0000,  0.0000,  0.0000)
  11 H      5.206975    7.516812    7.833592    ( 0.0000,  0.0000,  0.0000)
  12 H      4.366608    5.973513    7.591648    ( 0.0000,  0.0000,  0.0000)
  13 H      4.416507    7.161364    6.281697    ( 0.0000,  0.0000,  0.0000)
  14 H      6.949398    4.453041    5.278907    ( 0.0000,  0.0000,  0.0000)
  15 H      5.443671    5.243410    4.745378    ( 0.0000,  0.0000,  0.0000)
  16 H      5.422905    4.149153    6.125272    ( 0.0000,  0.0000,  0.0000)
  17 O      9.233393    5.864501    6.570623    ( 0.0000,  0.0000,  0.0000)
  18 H      8.492572    7.483767    4.166409    ( 0.0000,  0.0000,  0.0000)

Unit cell:
           periodic     x           y           z      points  spacing
  1. axis:    no    13.600000    0.000000    0.000000    68     0.2000
  2. axis:    no     0.000000   12.800000    0.000000    64     0.2000
  3. axis:    no     0.000000    0.000000   12.000000    60     0.2000

  Lengths:  13.600000  12.800000  12.000000
  Angles:   90.000000  90.000000  90.000000

Effective grid spacing dv^(1/3) = 0.2000

     iter     time        total  log10-change:
                         energy   eigst   dens
iter:   1 13:06:07  -118.047593
iter:   2 13:06:09  -111.168605   +0.64  -0.69
iter:   3 13:06:10  -109.225996   +0.69  -0.89
iter:   4 13:06:11  -108.991464   -0.28  -1.18
iter:   5 13:06:12  -108.970456   -0.66  -1.51
iter:   6 13:06:12  -108.968519c  -1.02  -2.19
iter:   7 13:06:13  -108.969167c  -1.76  -2.36
iter:   8 13:06:14  -108.968115c  -2.24  -2.47
iter:   9 13:06:14  -108.967760c  -2.37  -2.79
iter:  10 13:06:15  -108.967920c  -3.01  -2.94
iter:  11 13:06:15  -108.967815c  -3.45  -3.37
iter:  12 13:06:15  -108.967694c  -3.83  -3.55
iter:  13 13:06:16  -108.967778c  -4.30  -3.93
iter:  14 13:06:16  -108.967758c  -4.69  -4.08c
iter:  15 13:06:17  -108.967583c  -5.03  -4.36c
iter:  16 13:06:17  -108.967574c  -5.36  -4.59c
iter:  17 13:06:17  -108.967629c  -5.76  -4.82c
iter:  18 13:06:18  -108.967595c  -6.17  -5.25c
iter:  19 13:06:18  -108.967674c  -6.38  -5.40c
iter:  20 13:06:18  -108.967710c  -6.73  -5.50c
iter:  21 13:06:19  -108.967709c  -7.01  -5.60c
iter:  22 13:06:19  -108.967670c  -7.33  -5.77c
iter:  23 13:06:19  -108.967650c  -7.73c -5.94c

Converged after 23 iterations.

Dipole moment: (-1.106282, 0.484890, -0.192529) |e|*Ang

Energy contributions relative to reference atoms: (reference = -10838.958469)

Kinetic:       +108.685194
Potential:     -121.443670
External:        +0.011063
XC:             -98.889779
Entropy (-ST):   +0.000000
Local:           +2.475059
Interactions  
 surf:           +0.194483
--------------------------
Free energy:   -108.967650
Extrapolated:  -108.967650

Solvation cavity surface area: 169.34609
Solvation cavity volume: 176.66628
 Band  Eigenvalues  Occupancy
    0    -27.30456    2.00000
    1    -25.23590    2.00000
    2    -22.77326    2.00000
    3    -19.87947    2.00000
    4    -17.45409    2.00000
    5    -17.08786    2.00000
    6    -14.68758    2.00000
    7    -14.17810    2.00000
    8    -13.26654    2.00000
    9    -12.54975    2.00000
   10    -11.73953    2.00000
   11    -11.09871    2.00000
   12    -10.97588    2.00000
   13    -10.47846    2.00000
   14    -10.03070    2.00000
   15     -9.91128    2.00000
   16     -9.43305    2.00000
   17     -8.90606    2.00000
   18     -8.34967    2.00000
   19     -8.26181    2.00000
   20     -8.16800    2.00000
   21     -7.47791    2.00000
   22     -7.08513    2.00000
   23     -5.96413    2.00000
   24     -1.10266    0.00000
   25     -0.67458    0.00000
   26     -0.05579    0.00000
   27      0.07452    0.00000
   28      0.18123    0.00000
   29      0.73598    0.00000
   30      0.86043    0.00000
   31      0.97355    0.00000
   32      1.06704    0.00000

Fermi level: -3.53340

Gap: 4.861 eV
Transition (v -> c):
  (s=0, k=0, n=23, [0.00, 0.00, 0.00]) -> (s=0, k=0, n=24, [0.00, 0.00, 0.00])
Input parameters:
  external: {direction: [0. 1. 0.],
             name: ConstantElectricField,
             strength: 0.01}

Initialize ...

species:
  N:
    name: Nitrogen
    id: f7500608b86eaa90eef8b1d9a670dc53
    Z: 7.0
    valence: 5
    core: 2
    charge: 0.0
    file: /home/fr/fr_fr/fr_ez1021/source/gpaw-setups/gpaw-setups-0.9.20000/N.PBE.gz
    compensation charges: {type: gauss,
                           rc: 0.18,
                           lmax: 2}
    cutoffs: {filter: 1.11,
              core: 0.96}
    valence states:
      #              energy  rcut
      - 2s(2.00)   -18.583   0.603
      - 2p(3.00)    -7.089   0.529
      -  s           8.629   0.603
      -  p          20.123   0.529
      -  d           0.000   0.577
  
    # Using partial waves for N as LCAO basis

  C:
    name: Carbon
    id: 4aa54d4b901d75f77cc0ea3eec22967b
    Z: 6.0
    valence: 4
    core: 2
    charge: 0.0
    file: /home/fr/fr_fr/fr_ez1021/source/gpaw-setups/gpaw-setups-0.9.20000/C.PBE.gz
    compensation charges: {type: gauss,
                           rc: 0.20,
                           lmax: 2}
    cutoffs: {filter: 1.14,
              core: 1.14}
    valence states:
      #              energy  rcut
      - 2s(2.00)   -13.751   0.635
      - 2p(2.00)    -5.284   0.635
      -  s          13.461   0.635
      -  p          21.927   0.635
      -  d           0.000   0.635
  
    # Using partial waves for C as LCAO basis

  O:
    name: Oxygen
    id: 32ecd46bf208036f09c70b0ec9a88b78
    Z: 8.0
    valence: 6
    core: 2
    charge: 0.0
    file: /home/fr/fr_fr/fr_ez1021/source/gpaw-setups/gpaw-setups-0.9.20000/O.PBE.gz
    compensation charges: {type: gauss,
                           rc: 0.21,
                           lmax: 2}
    cutoffs: {filter: 1.17,
              core: 0.83}
    valence states:
      #              energy  rcut
      - 2s(2.00)   -23.961   0.688
      - 2p(4.00)    -9.029   0.598
      -  s           3.251   0.688
      -  p          18.182   0.598
      -  d           0.000   0.619
  
    # Using partial waves for O as LCAO basis

  H:
    name: Hydrogen
    id: d65de229564ff8ea4db303e23b6d1ecf
    Z: 1.0
    valence: 1
    core: 0
    charge: 0.0
    file: /home/fr/fr_fr/fr_ez1021/source/gpaw-setups/gpaw-setups-0.9.20000/H.PBE.gz
    compensation charges: {type: gauss,
                           rc: 0.15,
                           lmax: 2}
    cutoffs: {filter: 0.85,
              core: 0.53}
    valence states:
      #              energy  rcut
      - 1s(1.00)    -6.494   0.476
      -  s          20.717   0.476
      -  p           0.000   0.476
  
    # Using partial waves for H as LCAO basis

Reference energy: -10838.958469  # eV

Spin-paired calculation

Convergence criteria:
 Maximum [total energy] change in last 3 cyles: 0.0005 eV / valence electron
 Maximum integral of absolute [dens]ity change: 0.0001 electrons / valence electron
 Maximum integral of absolute [eigenst]ate change: 4e-08 eV^2 / valence electron
 Maximum number of scf [iter]ations: 333
 (Square brackets indicate name in SCF output, whereas a 'c' in
 the SCF output indicates the quantity has converged.)

Symmetries present (total): 1

  ( 1  0  0)
  ( 0  1  0)
  ( 0  0  1)

1 k-point (Gamma)
1 k-point in the irreducible part of the Brillouin zone
       k-points in crystal coordinates                weights
   0:     0.00000000    0.00000000    0.00000000          1/1

Wave functions: Uniform real-space grid
  Kinetic energy operator: 6*3+1=19 point O(h^6) finite-difference Laplacian
  ScaLapack parameters: grid=1x1, blocksize=None
  Wavefunction extrapolation:
    Improved wavefunction reuse through dual PAW basis 

Occupation numbers: # Zero width 

Eigensolver
   Davidson(niter=2) 

Densities:
  Coarse grid: 68*64*60 grid
  Fine grid: 136*128*120 grid
  Total Charge: 0.000000 

Density mixing:
  Method: separate
  Backend: pulay
  Linear mixing parameter: 0.25
  old densities: 3
  Damping of long wavelength oscillations: 1  # (no daming) 

Hamiltonian:
  XC and Coulomb potentials evaluated on a 136*128*120 grid
  Using the PBE Exchange-Correlation functional
  External potential:
    Constant electric field: (0.000, 0.010, 0.000) V/Ang
  Interpolation: tri-quintic (5. degree polynomial)
  Poisson solver: Jacobi weighted FD solver with dielectric and 4 multi-grid levels
    Coarsest grid: 17 x 16 x 15 points
    Stencil: Weighted Finite Difference Operator
      6*3+1=19 point O(h^6) finite-difference Laplacian
      Finite-difference x-derivative with O(h^6) error (6 points)
      Finite-difference y-derivative with O(h^6) error (6 points)
      Finite-difference z-derivative with O(h^6) error (6 points)
    Max iterations: 1000
    Tolerance: 2.000000e-10

  Solvation:
    Cavity:  EffectivePotentialCavity
      Surface Calculator: GradientSurface with 3 nn
      Volume Calculator: KB51Volume
        compressibility: 72.57860092224
        temperature:     298.15
      EffectivePotentialCavity
        Potential: Power12Potential
          u0: 0.18eV
          pbc_cutoff: 1e-06
          tiny: 1e-10
        temperature: 298.15K    Dielectric:
      Type: LinearDielectric
      Solvent dielectric constant: 1.77    Interaction: SurfaceInteraction
      subscript: surf
      Surface_tension: 0.0011484376791625194 eV/(Angstrom^2)
XC parameters: PBE with 2 nearest neighbor stencil

Memory estimate:
  Process memory now: 251.43 MiB
  Calculator: 41.65 MiB
    Density: 4.17 MiB
      Arrays: 3.03 MiB
      Localized functions: 0.48 MiB
      Mixer: 0.66 MiB
    Hamiltonian: 29.55 MiB
      Arrays: 1.98 MiB
      XC: 0.00 MiB
      Poisson: 2.27 MiB
      vbar: 0.04 MiB
      Solvation: 25.27 MiB
    Wavefunctions: 7.93 MiB
      Arrays psit_nG: 3.62 MiB
      Eigensolver: 4.25 MiB
      Projections: 0.00 MiB
      Projectors: 0.05 MiB

Total number of cores used: 16
Domain decomposition: 4 x 2 x 2

Number of atoms: 19
Number of atomic orbitals: 43
Number of bands in calculation: 33
Number of valence electrons: 48
Bands to converge: occupied

... initialized

Initializing position-dependent things.

Solvation position-dependent initialization:
  Atomic radii for Power12Potential:
    Type    Radius   No. of atoms
       H     1.090     11
       O     1.520     2
       N     1.550     1
       C     1.700     5

Density initialized from atomic densities
Creating initial wave functions:
  33 bands from LCAO basis set

         .--------------------------------.  
        /|                                |  
       / |                                |  
      /  |                                |  
     /   |                                |  
    /    |                                |  
   /     |                                |  
  /      |                                |  
 *       |                                |  
 |       |        H                       |  
 |       |     H C   H  H                 |  
 |       |      H   C HC   O              |  
 |       |            N   C               |  
 |       |       H CH     H O             |  
 |       |       H   H                    |  
 |       .--------------------------------.  
 |      /                                /   
 |     /                                /    
 |    /                                /     
 |   /                                /      
 |  /                                /       
 | /                                /        
 |/                                /         
 *--------------------------------*          

Positions:
   0 N      6.788003    7.783080    4.730524    ( 0.0000,  0.0000,  0.0000)
   1 C      7.245087    7.140712    5.979204    ( 0.0000,  0.0000,  0.0000)
   2 C      8.664052    6.559061    5.757739    ( 0.0000,  0.0000,  0.0000)
   3 O      9.211172    6.926698    4.584999    ( 0.0000,  0.0000,  0.0000)
   4 H      6.288263    8.650847    4.910889    ( 0.0000,  0.0000,  0.0000)
   5 H      6.159805    7.170965    4.208519    ( 0.0000,  0.0000,  0.0000)
   6 H      7.386608    7.939165    6.725460    ( 0.0000,  0.0000,  0.0000)
   7 C      6.299674    6.082962    6.592938    ( 0.0000,  0.0000,  0.0000)
   8 C      5.004336    6.721614    7.102103    ( 0.0000,  0.0000,  0.0000)
   9 C      6.020938    4.923903    5.628084    ( 0.0000,  0.0000,  0.0000)
  10 H      6.853560    5.674803    7.451704    ( 0.0000,  0.0000,  0.0000)
  11 H      5.206975    7.516812    7.833592    ( 0.0000,  0.0000,  0.0000)
  12 H      4.366608    5.973513    7.591648    ( 0.0000,  0.0000,  0.0000)
  13 H      4.416507    7.161364    6.281697    ( 0.0000,  0.0000,  0.0000)
  14 H      6.949398    4.453041    5.278907    ( 0.0000,  0.0000,  0.0000)
  15 H      5.443671    5.243410    4.745378    ( 0.0000,  0.0000,  0.0000)
  16 H      5.422905    4.149153    6.125272    ( 0.0000,  0.0000,  0.0000)
  17 O      9.233393    5.864501    6.570623    ( 0.0000,  0.0000,  0.0000)
  18 H      8.492572    7.483767    4.166409    ( 0.0000,  0.0000,  0.0000)

Unit cell:
           periodic     x           y           z      points  spacing
  1. axis:    no    13.600000    0.000000    0.000000    68     0.2000
  2. axis:    no     0.000000   12.800000    0.000000    64     0.2000
  3. axis:    no     0.000000    0.000000   12.000000    60     0.2000

  Lengths:  13.600000  12.800000  12.000000
  Angles:   90.000000  90.000000  90.000000

Effective grid spacing dv^(1/3) = 0.2000

     iter     time        total  log10-change:
                         energy   eigst   dens
iter:   1 13:06:22  -118.069403
iter:   2 13:06:23  -111.185266   +0.64  -0.69
iter:   3 13:06:24  -109.241920   +0.69  -0.89
iter:   4 13:06:25  -109.007478   -0.28  -1.18
iter:   5 13:06:26  -108.986447   -0.66  -1.51
iter:   6 13:06:27  -108.984529c  -1.02  -2.19
iter:   7 13:06:27  -108.985178c  -1.76  -2.36
iter:   8 13:06:28  -108.984123c  -2.24  -2.47
iter:   9 13:06:28  -108.983769c  -2.37  -2.79
iter:  10 13:06:29  -108.983929c  -3.01  -2.94
iter:  11 13:06:29  -108.983824c  -3.45  -3.37
iter:  12 13:06:30  -108.983705c  -3.83  -3.55
iter:  13 13:06:30  -108.983787c  -4.30  -3.93
iter:  14 13:06:30  -108.983769c  -4.69  -4.08c
iter:  15 13:06:31  -108.983593c  -5.03  -4.36c
iter:  16 13:06:31  -108.983582c  -5.35  -4.59c
iter:  17 13:06:31  -108.983642c  -5.76  -4.82c
iter:  18 13:06:32  -108.983602c  -6.16  -5.26c
iter:  19 13:06:32  -108.983682c  -6.38  -5.40c
iter:  20 13:06:32  -108.983719c  -6.72  -5.50c
iter:  21 13:06:33  -108.983720c  -7.00  -5.60c
iter:  22 13:06:33  -108.983683c  -7.32  -5.77c
iter:  23 13:06:33  -108.983659c  -7.72c -5.94c

Converged after 23 iterations.

Dipole moment: (-1.116819, 0.494180, -0.192618) |e|*Ang

Energy contributions relative to reference atoms: (reference = -10838.958469)

Kinetic:       +108.678262
Potential:     -121.434152
External:        -0.004942
XC:             -98.892496
Entropy (-ST):   +0.000000
Local:           +2.475186
Interactions  
 surf:           +0.194483
--------------------------
Free energy:   -108.983659
Extrapolated:  -108.983659

Solvation cavity surface area: 169.34609
Solvation cavity volume: 176.66628
 Band  Eigenvalues  Occupancy
    0    -27.31765    2.00000
    1    -25.25059    2.00000
    2    -22.76673    2.00000
    3    -19.87521    2.00000
    4    -17.45248    2.00000
    5    -17.08238    2.00000
    6    -14.69452    2.00000
    7    -14.17970    2.00000
    8    -13.26264    2.00000
    9    -12.54847    2.00000
   10    -11.73812    2.00000
   11    -11.10259    2.00000
   12    -10.97321    2.00000
   13    -10.48964    2.00000
   14    -10.03342    2.00000
   15     -9.91236    2.00000
   16     -9.42723    2.00000
   17     -8.90801    2.00000
   18     -8.34813    2.00000
   19     -8.25961    2.00000
   20     -8.16492    2.00000
   21     -7.49298    2.00000
   22     -7.08547    2.00000
   23     -5.97316    2.00000
   24     -1.10154    0.00000
   25     -0.66899    0.00000
   26     -0.04713    0.00000
   27      0.08011    0.00000
   28      0.19132    0.00000
   29      0.73810    0.00000
   30      0.86406    0.00000
   31      0.97190    0.00000
   32      1.06934    0.00000

Fermi level: -3.53735

Gap: 4.872 eV
Transition (v -> c):
  (s=0, k=0, n=23, [0.00, 0.00, 0.00]) -> (s=0, k=0, n=24, [0.00, 0.00, 0.00])
Input parameters:
  external: {direction: [0. 0. 1.],
             name: ConstantElectricField,
             strength: 0.01}

Initialize ...

species:
  N:
    name: Nitrogen
    id: f7500608b86eaa90eef8b1d9a670dc53
    Z: 7.0
    valence: 5
    core: 2
    charge: 0.0
    file: /home/fr/fr_fr/fr_ez1021/source/gpaw-setups/gpaw-setups-0.9.20000/N.PBE.gz
    compensation charges: {type: gauss,
                           rc: 0.18,
                           lmax: 2}
    cutoffs: {filter: 1.11,
              core: 0.96}
    valence states:
      #              energy  rcut
      - 2s(2.00)   -18.583   0.603
      - 2p(3.00)    -7.089   0.529
      -  s           8.629   0.603
      -  p          20.123   0.529
      -  d           0.000   0.577
  
    # Using partial waves for N as LCAO basis

  C:
    name: Carbon
    id: 4aa54d4b901d75f77cc0ea3eec22967b
    Z: 6.0
    valence: 4
    core: 2
    charge: 0.0
    file: /home/fr/fr_fr/fr_ez1021/source/gpaw-setups/gpaw-setups-0.9.20000/C.PBE.gz
    compensation charges: {type: gauss,
                           rc: 0.20,
                           lmax: 2}
    cutoffs: {filter: 1.14,
              core: 1.14}
    valence states:
      #              energy  rcut
      - 2s(2.00)   -13.751   0.635
      - 2p(2.00)    -5.284   0.635
      -  s          13.461   0.635
      -  p          21.927   0.635
      -  d           0.000   0.635
  
    # Using partial waves for C as LCAO basis

  O:
    name: Oxygen
    id: 32ecd46bf208036f09c70b0ec9a88b78
    Z: 8.0
    valence: 6
    core: 2
    charge: 0.0
    file: /home/fr/fr_fr/fr_ez1021/source/gpaw-setups/gpaw-setups-0.9.20000/O.PBE.gz
    compensation charges: {type: gauss,
                           rc: 0.21,
                           lmax: 2}
    cutoffs: {filter: 1.17,
              core: 0.83}
    valence states:
      #              energy  rcut
      - 2s(2.00)   -23.961   0.688
      - 2p(4.00)    -9.029   0.598
      -  s           3.251   0.688
      -  p          18.182   0.598
      -  d           0.000   0.619
  
    # Using partial waves for O as LCAO basis

  H:
    name: Hydrogen
    id: d65de229564ff8ea4db303e23b6d1ecf
    Z: 1.0
    valence: 1
    core: 0
    charge: 0.0
    file: /home/fr/fr_fr/fr_ez1021/source/gpaw-setups/gpaw-setups-0.9.20000/H.PBE.gz
    compensation charges: {type: gauss,
                           rc: 0.15,
                           lmax: 2}
    cutoffs: {filter: 0.85,
              core: 0.53}
    valence states:
      #              energy  rcut
      - 1s(1.00)    -6.494   0.476
      -  s          20.717   0.476
      -  p           0.000   0.476
  
    # Using partial waves for H as LCAO basis

Reference energy: -10838.958469  # eV

Spin-paired calculation

Convergence criteria:
 Maximum [total energy] change in last 3 cyles: 0.0005 eV / valence electron
 Maximum integral of absolute [dens]ity change: 0.0001 electrons / valence electron
 Maximum integral of absolute [eigenst]ate change: 4e-08 eV^2 / valence electron
 Maximum number of scf [iter]ations: 333
 (Square brackets indicate name in SCF output, whereas a 'c' in
 the SCF output indicates the quantity has converged.)

Symmetries present (total): 1

  ( 1  0  0)
  ( 0  1  0)
  ( 0  0  1)

1 k-point (Gamma)
1 k-point in the irreducible part of the Brillouin zone
       k-points in crystal coordinates                weights
   0:     0.00000000    0.00000000    0.00000000          1/1

Wave functions: Uniform real-space grid
  Kinetic energy operator: 6*3+1=19 point O(h^6) finite-difference Laplacian
  ScaLapack parameters: grid=1x1, blocksize=None
  Wavefunction extrapolation:
    Improved wavefunction reuse through dual PAW basis 

Occupation numbers: # Zero width 

Eigensolver
   Davidson(niter=2) 

Densities:
  Coarse grid: 68*64*60 grid
  Fine grid: 136*128*120 grid
  Total Charge: 0.000000 

Density mixing:
  Method: separate
  Backend: pulay
  Linear mixing parameter: 0.25
  old densities: 3
  Damping of long wavelength oscillations: 1  # (no daming) 

Hamiltonian:
  XC and Coulomb potentials evaluated on a 136*128*120 grid
  Using the PBE Exchange-Correlation functional
  External potential:
    Constant electric field: (0.000, 0.000, 0.010) V/Ang
  Interpolation: tri-quintic (5. degree polynomial)
  Poisson solver: Jacobi weighted FD solver with dielectric and 4 multi-grid levels
    Coarsest grid: 17 x 16 x 15 points
    Stencil: Weighted Finite Difference Operator
      6*3+1=19 point O(h^6) finite-difference Laplacian
      Finite-difference x-derivative with O(h^6) error (6 points)
      Finite-difference y-derivative with O(h^6) error (6 points)
      Finite-difference z-derivative with O(h^6) error (6 points)
    Max iterations: 1000
    Tolerance: 2.000000e-10

  Solvation:
    Cavity:  EffectivePotentialCavity
      Surface Calculator: GradientSurface with 3 nn
      Volume Calculator: KB51Volume
        compressibility: 72.57860092224
        temperature:     298.15
      EffectivePotentialCavity
        Potential: Power12Potential
          u0: 0.18eV
          pbc_cutoff: 1e-06
          tiny: 1e-10
        temperature: 298.15K    Dielectric:
      Type: LinearDielectric
      Solvent dielectric constant: 1.77    Interaction: SurfaceInteraction
      subscript: surf
      Surface_tension: 0.0011484376791625194 eV/(Angstrom^2)
XC parameters: PBE with 2 nearest neighbor stencil

Memory estimate:
  Process memory now: 258.09 MiB
  Calculator: 41.65 MiB
    Density: 4.17 MiB
      Arrays: 3.03 MiB
      Localized functions: 0.48 MiB
      Mixer: 0.66 MiB
    Hamiltonian: 29.55 MiB
      Arrays: 1.98 MiB
      XC: 0.00 MiB
      Poisson: 2.27 MiB
      vbar: 0.04 MiB
      Solvation: 25.27 MiB
    Wavefunctions: 7.93 MiB
      Arrays psit_nG: 3.62 MiB
      Eigensolver: 4.25 MiB
      Projections: 0.00 MiB
      Projectors: 0.05 MiB

Total number of cores used: 16
Domain decomposition: 4 x 2 x 2

Number of atoms: 19
Number of atomic orbitals: 43
Number of bands in calculation: 33
Number of valence electrons: 48
Bands to converge: occupied

... initialized

Initializing position-dependent things.

Solvation position-dependent initialization:
  Atomic radii for Power12Potential:
    Type    Radius   No. of atoms
       H     1.090     11
       O     1.520     2
       N     1.550     1
       C     1.700     5

Density initialized from atomic densities
Creating initial wave functions:
  33 bands from LCAO basis set

         .--------------------------------.  
        /|                                |  
       / |                                |  
      /  |                                |  
     /   |                                |  
    /    |                                |  
   /     |                                |  
  /      |                                |  
 *       |                                |  
 |       |        H                       |  
 |       |     H C   H  H                 |  
 |       |      H   C HC   O              |  
 |       |            N   C               |  
 |       |       H CH     H O             |  
 |       |       H   H                    |  
 |       .--------------------------------.  
 |      /                                /   
 |     /                                /    
 |    /                                /     
 |   /                                /      
 |  /                                /       
 | /                                /        
 |/                                /         
 *--------------------------------*          

Positions:
   0 N      6.788003    7.783080    4.730524    ( 0.0000,  0.0000,  0.0000)
   1 C      7.245087    7.140712    5.979204    ( 0.0000,  0.0000,  0.0000)
   2 C      8.664052    6.559061    5.757739    ( 0.0000,  0.0000,  0.0000)
   3 O      9.211172    6.926698    4.584999    ( 0.0000,  0.0000,  0.0000)
   4 H      6.288263    8.650847    4.910889    ( 0.0000,  0.0000,  0.0000)
   5 H      6.159805    7.170965    4.208519    ( 0.0000,  0.0000,  0.0000)
   6 H      7.386608    7.939165    6.725460    ( 0.0000,  0.0000,  0.0000)
   7 C      6.299674    6.082962    6.592938    ( 0.0000,  0.0000,  0.0000)
   8 C      5.004336    6.721614    7.102103    ( 0.0000,  0.0000,  0.0000)
   9 C      6.020938    4.923903    5.628084    ( 0.0000,  0.0000,  0.0000)
  10 H      6.853560    5.674803    7.451704    ( 0.0000,  0.0000,  0.0000)
  11 H      5.206975    7.516812    7.833592    ( 0.0000,  0.0000,  0.0000)
  12 H      4.366608    5.973513    7.591648    ( 0.0000,  0.0000,  0.0000)
  13 H      4.416507    7.161364    6.281697    ( 0.0000,  0.0000,  0.0000)
  14 H      6.949398    4.453041    5.278907    ( 0.0000,  0.0000,  0.0000)
  15 H      5.443671    5.243410    4.745378    ( 0.0000,  0.0000,  0.0000)
  16 H      5.422905    4.149153    6.125272    ( 0.0000,  0.0000,  0.0000)
  17 O      9.233393    5.864501    6.570623    ( 0.0000,  0.0000,  0.0000)
  18 H      8.492572    7.483767    4.166409    ( 0.0000,  0.0000,  0.0000)

Unit cell:
           periodic     x           y           z      points  spacing
  1. axis:    no    13.600000    0.000000    0.000000    68     0.2000
  2. axis:    no     0.000000   12.800000    0.000000    64     0.2000
  3. axis:    no     0.000000    0.000000   12.000000    60     0.2000

  Lengths:  13.600000  12.800000  12.000000
  Angles:   90.000000  90.000000  90.000000

Effective grid spacing dv^(1/3) = 0.2000

     iter     time        total  log10-change:
                         energy   eigst   dens
iter:   1 13:06:36  -118.057627
iter:   2 13:06:37  -111.177365   +0.64  -0.69
iter:   3 13:06:38  -109.235091   +0.69  -0.89
iter:   4 13:06:39  -109.000746   -0.28  -1.18
iter:   5 13:06:40  -108.979716   -0.66  -1.51
iter:   6 13:06:41  -108.977775c  -1.02  -2.19
iter:   7 13:06:41  -108.978414c  -1.76  -2.36
iter:   8 13:06:42  -108.977358c  -2.24  -2.47
iter:   9 13:06:42  -108.977005c  -2.37  -2.79
iter:  10 13:06:43  -108.977162c  -3.01  -2.94
iter:  11 13:06:43  -108.977056c  -3.45  -3.37
iter:  12 13:06:44  -108.976934c  -3.83  -3.55
iter:  13 13:06:44  -108.977018c  -4.30  -3.93
iter:  14 13:06:45  -108.976999c  -4.70  -4.08c
iter:  15 13:06:45  -108.976824c  -5.03  -4.36c
iter:  16 13:06:45  -108.976814c  -5.36  -4.59c
iter:  17 13:06:46  -108.976870c  -5.76  -4.82c
iter:  18 13:06:46  -108.976837c  -6.17  -5.25c
iter:  19 13:06:46  -108.976918c  -6.39  -5.39c
iter:  20 13:06:47  -108.976952c  -6.72  -5.50c
iter:  21 13:06:47  -108.976952c  -7.01  -5.60c
iter:  22 13:06:47  -108.976911c  -7.32  -5.78c
iter:  23 13:06:48  -108.976888c  -7.73c -5.95c

Converged after 23 iterations.

Dipole moment: (-1.117084, 0.484537, -0.182650) |e|*Ang

Energy contributions relative to reference atoms: (reference = -10838.958469)

Kinetic:       +108.685422
Potential:     -121.441863
External:        +0.001827
XC:             -98.891903
Entropy (-ST):   +0.000000
Local:           +2.475146
Interactions  
 surf:           +0.194483
--------------------------
Free energy:   -108.976888
Extrapolated:  -108.976888

Solvation cavity surface area: 169.34609
Solvation cavity volume: 176.66628
 Band  Eigenvalues  Occupancy
    0    -27.32515    2.00000
    1    -25.25428    2.00000
    2    -22.78044    2.00000
    3    -19.87309    2.00000
    4    -17.45700    2.00000
    5    -17.07586    2.00000
    6    -14.70017    2.00000
    7    -14.18256    2.00000
    8    -13.27431    2.00000
    9    -12.55415    2.00000
   10    -11.74264    2.00000
   11    -11.10670    2.00000
   12    -10.97087    2.00000
   13    -10.49142    2.00000
   14    -10.03266    2.00000
   15     -9.91227    2.00000
   16     -9.42113    2.00000
   17     -8.90825    2.00000
   18     -8.34805    2.00000
   19     -8.25589    2.00000
   20     -8.16079    2.00000
   21     -7.49802    2.00000
   22     -7.09635    2.00000
   23     -5.97774    2.00000
   24     -1.11040    0.00000
   25     -0.67962    0.00000
   26     -0.04854    0.00000
   27      0.08149    0.00000
   28      0.18192    0.00000
   29      0.74578    0.00000
   30      0.86107    0.00000
   31      0.98431    0.00000
   32      1.06461    0.00000

Fermi level: -3.54407

Gap: 4.867 eV
Transition (v -> c):
  (s=0, k=0, n=23, [0.00, 0.00, 0.00]) -> (s=0, k=0, n=24, [0.00, 0.00, 0.00])
Input parameters:
  external: None

Timing:                              incl.     excl.
-----------------------------------------------------------
Hamiltonian:                         7.403     1.252   2.2% ||
 Atomic:                             0.139     0.003   0.0% |
  XC Correction:                     0.137     0.137   0.2% |
 Hartree integrate/restrict:         0.008     0.008   0.0% |
 Initialize Hamiltonian:             0.129     0.129   0.2% |
 Poisson:                            5.715     5.715  10.0% |---|
 XC 3D grid:                         0.155     0.155   0.3% |
 vbar:                               0.004     0.004   0.0% |
LCAO initialization:                 1.095     0.861   1.5% ||
 LCAO eigensolver:                   0.078     0.001   0.0% |
  Calculate projections:             0.000     0.000   0.0% |
  DenseAtomicCorrection:             0.000     0.000   0.0% |
  Distribute overlap matrix:         0.067     0.067   0.1% |
  Orbital Layouts:                   0.004     0.004   0.0% |
  Potential matrix:                  0.005     0.005   0.0% |
 LCAO to grid:                       0.027     0.027   0.0% |
 Set positions (LCAO WFS):           0.129     0.089   0.2% |
  Basic WFS set positions:           0.003     0.003   0.0% |
  Basis functions set positions:     0.000     0.000   0.0% |
  P tci:                             0.002     0.002   0.0% |
  ST tci:                            0.011     0.011   0.0% |
  mktci:                             0.024     0.024   0.0% |
SCF-cycle:                          47.569     0.080   0.1% |
 Davidson:                          14.962     5.494   9.6% |---|
  Apply hamiltonian:                 1.316     1.316   2.3% ||
  Subspace diag:                     2.052     0.012   0.0% |
   calc_h_matrix:                    1.410     0.227   0.4% |
    Apply hamiltonian:               1.184     1.184   2.1% ||
   diagonalize:                      0.131     0.131   0.2% |
   rotate_psi:                       0.499     0.499   0.9% |
  calc. matrices:                    4.968     2.006   3.5% ||
   Apply hamiltonian:                2.961     2.961   5.2% |-|
  diagonalize:                       0.168     0.168   0.3% |
  rotate_psi:                        0.964     0.964   1.7% ||
 Density:                            0.570     0.002   0.0% |
  Atomic density matrices:           0.141     0.141   0.2% |
  Mix:                               0.324     0.324   0.6% |
  Multipole moments:                 0.019     0.019   0.0% |
  Pseudo density:                    0.083     0.082   0.1% |
   Symmetrize density:               0.002     0.002   0.0% |
 Hamiltonian:                       31.776     1.825   3.2% ||
  Atomic:                            3.059     0.053   0.1% |
   XC Correction:                    3.006     3.006   5.2% |-|
  Hartree integrate/restrict:        0.180     0.180   0.3% |
  Poisson:                          23.389    23.389  40.8% |---------------|
  XC 3D grid:                        3.284     3.284   5.7% |-|
  vbar:                              0.039     0.039   0.1% |
 Orthonormalize:                     0.180     0.001   0.0% |
  calc_s_matrix:                     0.007     0.007   0.0% |
  inverse-cholesky:                  0.155     0.155   0.3% |
  projections:                       0.000     0.000   0.0% |
  rotate_psi_s:                      0.017     0.017   0.0% |
Set symmetry:                        0.004     0.004   0.0% |
Other:                               1.195     1.195   2.1% ||
-----------------------------------------------------------
Total:                                        57.266 100.0%

Memory usage: 259.60 MiB
Date: Fri Oct  6 13:06:48 2023
